V -t * -v 1.0a5 -a 0
A -t * -n 1 -p 0 -o 0x7fffffff -c 30 -a 1
A -t * -h 1 -m 1073741823 -s 0
c -t * -i 1 -n Blue
c -t * -i 2 -n Red
c -t * -i 3 -n Green
n -t * -a 17 -s 17 -S UP -v circle -c black -i black
n -t * -a 0 -s 0 -S UP -v circle -c black -i black
n -t * -a 18 -s 18 -S UP -v circle -c black -i black
n -t * -a 1 -s 1 -S UP -v circle -c black -i black
n -t * -a 20 -s 20 -S UP -v circle -c black -i black
n -t * -a 19 -s 19 -S UP -v circle -c black -i black
n -t * -a 2 -s 2 -S UP -v circle -c black -i black
n -t * -a 21 -s 21 -S UP -v circle -c black -i black
n -t * -a 3 -s 3 -S UP -v circle -c black -i black
n -t * -a 22 -s 22 -S UP -v circle -c black -i black
n -t * -a 4 -s 4 -S UP -v circle -c black -i black
n -t * -a 23 -s 23 -S UP -v circle -c black -i black
n -t * -a 5 -s 5 -S UP -v circle -c black -i black
n -t * -a 24 -s 24 -S UP -v circle -c black -i black
n -t * -a 6 -s 6 -S UP -v circle -c black -i black
n -t * -a 25 -s 25 -S UP -v circle -c black -i black
n -t * -a 7 -s 7 -S UP -v circle -c black -i black
n -t * -a 26 -s 26 -S UP -v circle -c black -i black
n -t * -a 8 -s 8 -S UP -v circle -c black -i black
n -t * -a 27 -s 27 -S UP -v circle -c black -i black
n -t * -a 9 -s 9 -S UP -v circle -c black -i black
n -t * -a 10 -s 10 -S UP -v circle -c black -i black
n -t * -a 28 -s 28 -S UP -v circle -c black -i black
n -t * -a 11 -s 11 -S UP -v circle -c black -i black
n -t * -a 30 -s 30 -S UP -v circle -c black -i black
n -t * -a 29 -s 29 -S UP -v circle -c black -i black
n -t * -a 12 -s 12 -S UP -v circle -c black -i black
n -t * -a 13 -s 13 -S UP -v circle -c black -i black
n -t * -a 14 -s 14 -S UP -v circle -c black -i black
n -t * -a 15 -s 15 -S UP -v circle -c black -i black
n -t * -a 16 -s 16 -S UP -v circle -c black -i black
l -t * -s 0 -d 1 -S UP -r 100000 -D 1 -c black
l -t * -s 1 -d 2 -S UP -r 100000 -D 1 -c black
l -t * -s 2 -d 3 -S UP -r 100000 -D 1 -c black
l -t * -s 3 -d 4 -S UP -r 100000 -D 1 -c black
l -t * -s 4 -d 5 -S UP -r 100000 -D 1 -c black
l -t * -s 5 -d 6 -S UP -r 100000 -D 1 -c black
l -t * -s 6 -d 7 -S UP -r 100000 -D 1 -c black
l -t * -s 7 -d 8 -S UP -r 100000 -D 1 -c black
l -t * -s 8 -d 9 -S UP -r 100000 -D 1 -c black
l -t * -s 9 -d 0 -S UP -r 100000 -D 1 -c black
l -t * -s 10 -d 11 -S UP -r 100000 -D 1 -c black
l -t * -s 11 -d 12 -S UP -r 100000 -D 1 -c black
l -t * -s 12 -d 13 -S UP -r 100000 -D 1 -c black
l -t * -s 13 -d 14 -S UP -r 100000 -D 1 -c black
l -t * -s 14 -d 15 -S UP -r 100000 -D 1 -c black
l -t * -s 15 -d 16 -S UP -r 100000 -D 1 -c black
l -t * -s 16 -d 17 -S UP -r 100000 -D 1 -c black
l -t * -s 17 -d 18 -S UP -r 100000 -D 1 -c black
l -t * -s 18 -d 19 -S UP -r 100000 -D 1 -c black
l -t * -s 19 -d 10 -S UP -r 100000 -D 1 -c black
l -t * -s 20 -d 21 -S UP -r 100000 -D 1 -c black
l -t * -s 21 -d 22 -S UP -r 100000 -D 1 -c black
l -t * -s 22 -d 23 -S UP -r 100000 -D 1 -c black
l -t * -s 23 -d 24 -S UP -r 100000 -D 1 -c black
l -t * -s 24 -d 25 -S UP -r 100000 -D 1 -c black
l -t * -s 25 -d 26 -S UP -r 100000 -D 1 -c black
l -t * -s 26 -d 27 -S UP -r 100000 -D 1 -c black
l -t * -s 27 -d 28 -S UP -r 100000 -D 1 -c black
l -t * -s 28 -d 29 -S UP -r 100000 -D 1 -c black
l -t * -s 29 -d 20 -S UP -r 100000 -D 1 -c black
X -t * -n 31 -r 1Mb -D 30ms -o left
L -t * -s 31 -d 0 -o up
L -t * -s 31 -d 1 -o down
L -t * -s 31 -d 2 -o up
L -t * -s 31 -d 3 -o down
L -t * -s 31 -d 4 -o up
L -t * -s 31 -d 5 -o down
L -t * -s 31 -d 6 -o up
L -t * -s 31 -d 7 -o down
L -t * -s 31 -d 8 -o up
L -t * -s 31 -d 9 -o down
L -t * -s 31 -d 10 -o up
L -t * -s 31 -d 11 -o down
L -t * -s 31 -d 12 -o up
L -t * -s 31 -d 13 -o down
L -t * -s 31 -d 14 -o up
L -t * -s 31 -d 15 -o down
L -t * -s 31 -d 16 -o up
L -t * -s 31 -d 17 -o down
L -t * -s 31 -d 18 -o up
L -t * -s 31 -d 19 -o down
L -t * -s 31 -d 20 -o up
L -t * -s 31 -d 21 -o down
L -t * -s 31 -d 22 -o up
L -t * -s 31 -d 23 -o down
L -t * -s 31 -d 24 -o up
L -t * -s 31 -d 25 -o down
L -t * -s 31 -d 26 -o up
L -t * -s 31 -d 27 -o down
L -t * -s 31 -d 28 -o up
L -t * -s 31 -d 29 -o down
L -t * -s 31 -d 30 -o up
+ -t 0.1 -s 1 -d 0 -p cbr -e 1000 -c 2 -i 0 -a 2 -x {1.0 0.0 0 ------- null}
- -t 0.1 -s 1 -d 0 -p cbr -e 1000 -c 2 -i 0 -a 2 -x {1.0 0.0 0 ------- null}
h -t 0.1 -s 1 -d 0 -p cbr -e 1000 -c 2 -i 0 -a 2 -x {1.0 0.0 -1 ------- null}
+ -t 0.1 -s 1 -d 0 -p cbr -e 24 -c 2 -i 1 -a 2 -x {1.0 0.0 1 ------- null}
h -t 0.1 -s 2 -d 31 -p cbr -e 1000 -c 3 -i 2 -a 3 -x {2.0 0.1 0 ------- null}
h -t 0.1 -s 2 -d 31 -p cbr -e 24 -c 3 -i 3 -a 3 -x {2.0 0.1 1 ------- null}
h -t 0.1 -s 3 -d 31 -p cbr -e 1000 -c 1 -i 4 -a 1 -x {3.0 0.2 0 ------- null}
h -t 0.1 -s 3 -d 31 -p cbr -e 24 -c 1 -i 5 -a 1 -x {3.0 0.2 1 ------- null}
h -t 0.1 -s 4 -d 31 -p cbr -e 1000 -c 2 -i 6 -a 2 -x {4.0 0.3 0 ------- null}
h -t 0.1 -s 4 -d 31 -p cbr -e 24 -c 2 -i 7 -a 2 -x {4.0 0.3 1 ------- null}
h -t 0.1 -s 5 -d 31 -p cbr -e 1000 -c 3 -i 8 -a 3 -x {5.0 0.4 0 ------- null}
h -t 0.1 -s 5 -d 31 -p cbr -e 24 -c 3 -i 9 -a 3 -x {5.0 0.4 1 ------- null}
h -t 0.1 -s 6 -d 31 -p cbr -e 1000 -c 1 -i 10 -a 1 -x {6.0 0.5 0 ------- null}
h -t 0.1 -s 6 -d 31 -p cbr -e 24 -c 1 -i 11 -a 1 -x {6.0 0.5 1 ------- null}
h -t 0.1 -s 7 -d 31 -p cbr -e 1000 -c 2 -i 12 -a 2 -x {7.0 0.6 0 ------- null}
h -t 0.1 -s 7 -d 31 -p cbr -e 24 -c 2 -i 13 -a 2 -x {7.0 0.6 1 ------- null}
h -t 0.1 -s 8 -d 31 -p cbr -e 1000 -c 3 -i 14 -a 3 -x {8.0 0.7 0 ------- null}
h -t 0.1 -s 8 -d 31 -p cbr -e 24 -c 3 -i 15 -a 3 -x {8.0 0.7 1 ------- null}
+ -t 0.1 -s 9 -d 0 -p cbr -e 1000 -c 1 -i 16 -a 1 -x {9.0 0.8 0 ------- null}
- -t 0.1 -s 9 -d 0 -p cbr -e 1000 -c 1 -i 16 -a 1 -x {9.0 0.8 0 ------- null}
h -t 0.1 -s 9 -d 0 -p cbr -e 1000 -c 1 -i 16 -a 1 -x {9.0 0.8 -1 ------- null}
+ -t 0.1 -s 9 -d 0 -p cbr -e 24 -c 1 -i 17 -a 1 -x {9.0 0.8 1 ------- null}
h -t 0.1 -s 10 -d 31 -p cbr -e 1000 -c 2 -i 18 -a 2 -x {10.0 0.9 0 ------- null}
h -t 0.1 -s 10 -d 31 -p cbr -e 24 -c 2 -i 19 -a 2 -x {10.0 0.9 1 ------- null}
h -t 0.1 -s 11 -d 31 -p cbr -e 1000 -c 3 -i 20 -a 3 -x {11.0 0.10 0 ------- null}
h -t 0.1 -s 11 -d 31 -p cbr -e 24 -c 3 -i 21 -a 3 -x {11.0 0.10 1 ------- null}
h -t 0.1 -s 12 -d 31 -p cbr -e 1000 -c 1 -i 22 -a 1 -x {12.0 0.11 0 ------- null}
h -t 0.1 -s 12 -d 31 -p cbr -e 24 -c 1 -i 23 -a 1 -x {12.0 0.11 1 ------- null}
h -t 0.1 -s 13 -d 31 -p cbr -e 1000 -c 2 -i 24 -a 2 -x {13.0 0.12 0 ------- null}
h -t 0.1 -s 13 -d 31 -p cbr -e 24 -c 2 -i 25 -a 2 -x {13.0 0.12 1 ------- null}
h -t 0.1 -s 14 -d 31 -p cbr -e 1000 -c 3 -i 26 -a 3 -x {14.0 0.13 0 ------- null}
h -t 0.1 -s 14 -d 31 -p cbr -e 24 -c 3 -i 27 -a 3 -x {14.0 0.13 1 ------- null}
h -t 0.1 -s 15 -d 31 -p cbr -e 1000 -c 1 -i 28 -a 1 -x {15.0 0.14 0 ------- null}
h -t 0.1 -s 15 -d 31 -p cbr -e 24 -c 1 -i 29 -a 1 -x {15.0 0.14 1 ------- null}
h -t 0.1 -s 16 -d 31 -p cbr -e 1000 -c 2 -i 30 -a 2 -x {16.0 0.15 0 ------- null}
h -t 0.1 -s 16 -d 31 -p cbr -e 24 -c 2 -i 31 -a 2 -x {16.0 0.15 1 ------- null}
h -t 0.1 -s 17 -d 31 -p cbr -e 1000 -c 3 -i 32 -a 3 -x {17.0 0.16 0 ------- null}
h -t 0.1 -s 17 -d 31 -p cbr -e 24 -c 3 -i 33 -a 3 -x {17.0 0.16 1 ------- null}
h -t 0.1 -s 18 -d 31 -p cbr -e 1000 -c 1 -i 34 -a 1 -x {18.0 0.17 0 ------- null}
h -t 0.1 -s 18 -d 31 -p cbr -e 24 -c 1 -i 35 -a 1 -x {18.0 0.17 1 ------- null}
h -t 0.1 -s 19 -d 31 -p cbr -e 1000 -c 2 -i 36 -a 2 -x {19.0 0.18 0 ------- null}
h -t 0.1 -s 19 -d 31 -p cbr -e 24 -c 2 -i 37 -a 2 -x {19.0 0.18 1 ------- null}
h -t 0.1 -s 20 -d 31 -p cbr -e 1000 -c 3 -i 38 -a 3 -x {20.0 0.19 0 ------- null}
h -t 0.1 -s 20 -d 31 -p cbr -e 24 -c 3 -i 39 -a 3 -x {20.0 0.19 1 ------- null}
h -t 0.1 -s 21 -d 31 -p cbr -e 1000 -c 1 -i 40 -a 1 -x {21.0 0.20 0 ------- null}
h -t 0.1 -s 21 -d 31 -p cbr -e 24 -c 1 -i 41 -a 1 -x {21.0 0.20 1 ------- null}
h -t 0.1 -s 22 -d 31 -p cbr -e 1000 -c 2 -i 42 -a 2 -x {22.0 0.21 0 ------- null}
h -t 0.1 -s 22 -d 31 -p cbr -e 24 -c 2 -i 43 -a 2 -x {22.0 0.21 1 ------- null}
h -t 0.1 -s 23 -d 31 -p cbr -e 1000 -c 3 -i 44 -a 3 -x {23.0 0.22 0 ------- null}
h -t 0.1 -s 23 -d 31 -p cbr -e 24 -c 3 -i 45 -a 3 -x {23.0 0.22 1 ------- null}
h -t 0.1 -s 24 -d 31 -p cbr -e 1000 -c 1 -i 46 -a 1 -x {24.0 0.23 0 ------- null}
h -t 0.1 -s 24 -d 31 -p cbr -e 24 -c 1 -i 47 -a 1 -x {24.0 0.23 1 ------- null}
h -t 0.1 -s 25 -d 31 -p cbr -e 1000 -c 2 -i 48 -a 2 -x {25.0 0.24 0 ------- null}
h -t 0.1 -s 25 -d 31 -p cbr -e 24 -c 2 -i 49 -a 2 -x {25.0 0.24 1 ------- null}
h -t 0.1 -s 26 -d 31 -p cbr -e 1000 -c 3 -i 50 -a 3 -x {26.0 0.25 0 ------- null}
h -t 0.1 -s 26 -d 31 -p cbr -e 24 -c 3 -i 51 -a 3 -x {26.0 0.25 1 ------- null}
h -t 0.1 -s 27 -d 31 -p cbr -e 1000 -c 1 -i 52 -a 1 -x {27.0 0.26 0 ------- null}
h -t 0.1 -s 27 -d 31 -p cbr -e 24 -c 1 -i 53 -a 1 -x {27.0 0.26 1 ------- null}
h -t 0.1 -s 28 -d 31 -p cbr -e 1000 -c 2 -i 54 -a 2 -x {28.0 0.27 0 ------- null}
h -t 0.1 -s 28 -d 31 -p cbr -e 24 -c 2 -i 55 -a 2 -x {28.0 0.27 1 ------- null}
h -t 0.1 -s 29 -d 31 -p cbr -e 1000 -c 3 -i 56 -a 3 -x {29.0 0.28 0 ------- null}
h -t 0.1 -s 29 -d 31 -p cbr -e 24 -c 3 -i 57 -a 3 -x {29.0 0.28 1 ------- null}
h -t 0.1 -s 30 -d 31 -p cbr -e 1000 -c 1 -i 58 -a 1 -x {30.0 0.29 0 ------- null}
h -t 0.1 -s 30 -d 31 -p cbr -e 24 -c 1 -i 59 -a 1 -x {30.0 0.29 1 ------- null}
+ -t 0.13 -s 2 -d 31 -p cbr -e 1000 -c 3 -i 2 -a 3 -x {2.0 0.1 0 ------- null}
- -t 0.13 -s 2 -d 31 -p cbr -e 1000 -c 3 -i 2 -a 3 -x {2.0 0.1 0 ------- null}
h -t 0.13 -s 2 -d 31 -p cbr -e 1000 -c 3 -i 2 -a 3 -x {2.0 0.1 -1 ------- null}
+ -t 0.13 -s 2 -d 31 -p cbr -e 24 -c 3 -i 3 -a 3 -x {2.0 0.1 1 ------- null}
+ -t 0.13 -s 3 -d 31 -p cbr -e 1000 -c 1 -i 4 -a 1 -x {3.0 0.2 0 ------- null}
- -t 0.13 -s 3 -d 31 -p cbr -e 1000 -c 1 -i 4 -a 1 -x {3.0 0.2 0 ------- null}
h -t 0.13 -s 3 -d 31 -p cbr -e 1000 -c 1 -i 4 -a 1 -x {3.0 0.2 -1 ------- null}
+ -t 0.13 -s 3 -d 31 -p cbr -e 24 -c 1 -i 5 -a 1 -x {3.0 0.2 1 ------- null}
+ -t 0.13 -s 4 -d 31 -p cbr -e 1000 -c 2 -i 6 -a 2 -x {4.0 0.3 0 ------- null}
- -t 0.13 -s 4 -d 31 -p cbr -e 1000 -c 2 -i 6 -a 2 -x {4.0 0.3 0 ------- null}
h -t 0.13 -s 4 -d 31 -p cbr -e 1000 -c 2 -i 6 -a 2 -x {4.0 0.3 -1 ------- null}
+ -t 0.13 -s 4 -d 31 -p cbr -e 24 -c 2 -i 7 -a 2 -x {4.0 0.3 1 ------- null}
+ -t 0.13 -s 5 -d 31 -p cbr -e 1000 -c 3 -i 8 -a 3 -x {5.0 0.4 0 ------- null}
- -t 0.13 -s 5 -d 31 -p cbr -e 1000 -c 3 -i 8 -a 3 -x {5.0 0.4 0 ------- null}
h -t 0.13 -s 5 -d 31 -p cbr -e 1000 -c 3 -i 8 -a 3 -x {5.0 0.4 -1 ------- null}
+ -t 0.13 -s 5 -d 31 -p cbr -e 24 -c 3 -i 9 -a 3 -x {5.0 0.4 1 ------- null}
+ -t 0.13 -s 6 -d 31 -p cbr -e 1000 -c 1 -i 10 -a 1 -x {6.0 0.5 0 ------- null}
- -t 0.13 -s 6 -d 31 -p cbr -e 1000 -c 1 -i 10 -a 1 -x {6.0 0.5 0 ------- null}
h -t 0.13 -s 6 -d 31 -p cbr -e 1000 -c 1 -i 10 -a 1 -x {6.0 0.5 -1 ------- null}
+ -t 0.13 -s 6 -d 31 -p cbr -e 24 -c 1 -i 11 -a 1 -x {6.0 0.5 1 ------- null}
+ -t 0.13 -s 7 -d 31 -p cbr -e 1000 -c 2 -i 12 -a 2 -x {7.0 0.6 0 ------- null}
- -t 0.13 -s 7 -d 31 -p cbr -e 1000 -c 2 -i 12 -a 2 -x {7.0 0.6 0 ------- null}
h -t 0.13 -s 7 -d 31 -p cbr -e 1000 -c 2 -i 12 -a 2 -x {7.0 0.6 -1 ------- null}
+ -t 0.13 -s 7 -d 31 -p cbr -e 24 -c 2 -i 13 -a 2 -x {7.0 0.6 1 ------- null}
+ -t 0.13 -s 8 -d 31 -p cbr -e 1000 -c 3 -i 14 -a 3 -x {8.0 0.7 0 ------- null}
- -t 0.13 -s 8 -d 31 -p cbr -e 1000 -c 3 -i 14 -a 3 -x {8.0 0.7 0 ------- null}
h -t 0.13 -s 8 -d 31 -p cbr -e 1000 -c 3 -i 14 -a 3 -x {8.0 0.7 -1 ------- null}
+ -t 0.13 -s 8 -d 31 -p cbr -e 24 -c 3 -i 15 -a 3 -x {8.0 0.7 1 ------- null}
+ -t 0.13 -s 10 -d 31 -p cbr -e 1000 -c 2 -i 18 -a 2 -x {10.0 0.9 0 ------- null}
- -t 0.13 -s 10 -d 31 -p cbr -e 1000 -c 2 -i 18 -a 2 -x {10.0 0.9 0 ------- null}
h -t 0.13 -s 10 -d 31 -p cbr -e 1000 -c 2 -i 18 -a 2 -x {10.0 0.9 -1 ------- null}
+ -t 0.13 -s 10 -d 31 -p cbr -e 24 -c 2 -i 19 -a 2 -x {10.0 0.9 1 ------- null}
+ -t 0.13 -s 11 -d 31 -p cbr -e 1000 -c 3 -i 20 -a 3 -x {11.0 0.10 0 ------- null}
- -t 0.13 -s 11 -d 31 -p cbr -e 1000 -c 3 -i 20 -a 3 -x {11.0 0.10 0 ------- null}
h -t 0.13 -s 11 -d 31 -p cbr -e 1000 -c 3 -i 20 -a 3 -x {11.0 0.10 -1 ------- null}
+ -t 0.13 -s 11 -d 31 -p cbr -e 24 -c 3 -i 21 -a 3 -x {11.0 0.10 1 ------- null}
+ -t 0.13 -s 12 -d 31 -p cbr -e 1000 -c 1 -i 22 -a 1 -x {12.0 0.11 0 ------- null}
- -t 0.13 -s 12 -d 31 -p cbr -e 1000 -c 1 -i 22 -a 1 -x {12.0 0.11 0 ------- null}
h -t 0.13 -s 12 -d 31 -p cbr -e 1000 -c 1 -i 22 -a 1 -x {12.0 0.11 -1 ------- null}
+ -t 0.13 -s 12 -d 31 -p cbr -e 24 -c 1 -i 23 -a 1 -x {12.0 0.11 1 ------- null}
+ -t 0.13 -s 13 -d 31 -p cbr -e 1000 -c 2 -i 24 -a 2 -x {13.0 0.12 0 ------- null}
- -t 0.13 -s 13 -d 31 -p cbr -e 1000 -c 2 -i 24 -a 2 -x {13.0 0.12 0 ------- null}
h -t 0.13 -s 13 -d 31 -p cbr -e 1000 -c 2 -i 24 -a 2 -x {13.0 0.12 -1 ------- null}
+ -t 0.13 -s 13 -d 31 -p cbr -e 24 -c 2 -i 25 -a 2 -x {13.0 0.12 1 ------- null}
+ -t 0.13 -s 14 -d 31 -p cbr -e 1000 -c 3 -i 26 -a 3 -x {14.0 0.13 0 ------- null}
- -t 0.13 -s 14 -d 31 -p cbr -e 1000 -c 3 -i 26 -a 3 -x {14.0 0.13 0 ------- null}
h -t 0.13 -s 14 -d 31 -p cbr -e 1000 -c 3 -i 26 -a 3 -x {14.0 0.13 -1 ------- null}
+ -t 0.13 -s 14 -d 31 -p cbr -e 24 -c 3 -i 27 -a 3 -x {14.0 0.13 1 ------- null}
+ -t 0.13 -s 15 -d 31 -p cbr -e 1000 -c 1 -i 28 -a 1 -x {15.0 0.14 0 ------- null}
- -t 0.13 -s 15 -d 31 -p cbr -e 1000 -c 1 -i 28 -a 1 -x {15.0 0.14 0 ------- null}
h -t 0.13 -s 15 -d 31 -p cbr -e 1000 -c 1 -i 28 -a 1 -x {15.0 0.14 -1 ------- null}
+ -t 0.13 -s 15 -d 31 -p cbr -e 24 -c 1 -i 29 -a 1 -x {15.0 0.14 1 ------- null}
+ -t 0.13 -s 16 -d 31 -p cbr -e 1000 -c 2 -i 30 -a 2 -x {16.0 0.15 0 ------- null}
- -t 0.13 -s 16 -d 31 -p cbr -e 1000 -c 2 -i 30 -a 2 -x {16.0 0.15 0 ------- null}
h -t 0.13 -s 16 -d 31 -p cbr -e 1000 -c 2 -i 30 -a 2 -x {16.0 0.15 -1 ------- null}
+ -t 0.13 -s 16 -d 31 -p cbr -e 24 -c 2 -i 31 -a 2 -x {16.0 0.15 1 ------- null}
+ -t 0.13 -s 17 -d 31 -p cbr -e 1000 -c 3 -i 32 -a 3 -x {17.0 0.16 0 ------- null}
- -t 0.13 -s 17 -d 31 -p cbr -e 1000 -c 3 -i 32 -a 3 -x {17.0 0.16 0 ------- null}
h -t 0.13 -s 17 -d 31 -p cbr -e 1000 -c 3 -i 32 -a 3 -x {17.0 0.16 -1 ------- null}
+ -t 0.13 -s 17 -d 31 -p cbr -e 24 -c 3 -i 33 -a 3 -x {17.0 0.16 1 ------- null}
+ -t 0.13 -s 18 -d 31 -p cbr -e 1000 -c 1 -i 34 -a 1 -x {18.0 0.17 0 ------- null}
- -t 0.13 -s 18 -d 31 -p cbr -e 1000 -c 1 -i 34 -a 1 -x {18.0 0.17 0 ------- null}
h -t 0.13 -s 18 -d 31 -p cbr -e 1000 -c 1 -i 34 -a 1 -x {18.0 0.17 -1 ------- null}
+ -t 0.13 -s 18 -d 31 -p cbr -e 24 -c 1 -i 35 -a 1 -x {18.0 0.17 1 ------- null}
+ -t 0.13 -s 19 -d 31 -p cbr -e 1000 -c 2 -i 36 -a 2 -x {19.0 0.18 0 ------- null}
- -t 0.13 -s 19 -d 31 -p cbr -e 1000 -c 2 -i 36 -a 2 -x {19.0 0.18 0 ------- null}
h -t 0.13 -s 19 -d 31 -p cbr -e 1000 -c 2 -i 36 -a 2 -x {19.0 0.18 -1 ------- null}
+ -t 0.13 -s 19 -d 31 -p cbr -e 24 -c 2 -i 37 -a 2 -x {19.0 0.18 1 ------- null}
+ -t 0.13 -s 20 -d 31 -p cbr -e 1000 -c 3 -i 38 -a 3 -x {20.0 0.19 0 ------- null}
- -t 0.13 -s 20 -d 31 -p cbr -e 1000 -c 3 -i 38 -a 3 -x {20.0 0.19 0 ------- null}
h -t 0.13 -s 20 -d 31 -p cbr -e 1000 -c 3 -i 38 -a 3 -x {20.0 0.19 -1 ------- null}
+ -t 0.13 -s 20 -d 31 -p cbr -e 24 -c 3 -i 39 -a 3 -x {20.0 0.19 1 ------- null}
+ -t 0.13 -s 21 -d 31 -p cbr -e 1000 -c 1 -i 40 -a 1 -x {21.0 0.20 0 ------- null}
- -t 0.13 -s 21 -d 31 -p cbr -e 1000 -c 1 -i 40 -a 1 -x {21.0 0.20 0 ------- null}
h -t 0.13 -s 21 -d 31 -p cbr -e 1000 -c 1 -i 40 -a 1 -x {21.0 0.20 -1 ------- null}
+ -t 0.13 -s 21 -d 31 -p cbr -e 24 -c 1 -i 41 -a 1 -x {21.0 0.20 1 ------- null}
+ -t 0.13 -s 22 -d 31 -p cbr -e 1000 -c 2 -i 42 -a 2 -x {22.0 0.21 0 ------- null}
- -t 0.13 -s 22 -d 31 -p cbr -e 1000 -c 2 -i 42 -a 2 -x {22.0 0.21 0 ------- null}
h -t 0.13 -s 22 -d 31 -p cbr -e 1000 -c 2 -i 42 -a 2 -x {22.0 0.21 -1 ------- null}
+ -t 0.13 -s 22 -d 31 -p cbr -e 24 -c 2 -i 43 -a 2 -x {22.0 0.21 1 ------- null}
+ -t 0.13 -s 23 -d 31 -p cbr -e 1000 -c 3 -i 44 -a 3 -x {23.0 0.22 0 ------- null}
- -t 0.13 -s 23 -d 31 -p cbr -e 1000 -c 3 -i 44 -a 3 -x {23.0 0.22 0 ------- null}
h -t 0.13 -s 23 -d 31 -p cbr -e 1000 -c 3 -i 44 -a 3 -x {23.0 0.22 -1 ------- null}
+ -t 0.13 -s 23 -d 31 -p cbr -e 24 -c 3 -i 45 -a 3 -x {23.0 0.22 1 ------- null}
+ -t 0.13 -s 24 -d 31 -p cbr -e 1000 -c 1 -i 46 -a 1 -x {24.0 0.23 0 ------- null}
- -t 0.13 -s 24 -d 31 -p cbr -e 1000 -c 1 -i 46 -a 1 -x {24.0 0.23 0 ------- null}
h -t 0.13 -s 24 -d 31 -p cbr -e 1000 -c 1 -i 46 -a 1 -x {24.0 0.23 -1 ------- null}
+ -t 0.13 -s 24 -d 31 -p cbr -e 24 -c 1 -i 47 -a 1 -x {24.0 0.23 1 ------- null}
+ -t 0.13 -s 25 -d 31 -p cbr -e 1000 -c 2 -i 48 -a 2 -x {25.0 0.24 0 ------- null}
- -t 0.13 -s 25 -d 31 -p cbr -e 1000 -c 2 -i 48 -a 2 -x {25.0 0.24 0 ------- null}
h -t 0.13 -s 25 -d 31 -p cbr -e 1000 -c 2 -i 48 -a 2 -x {25.0 0.24 -1 ------- null}
+ -t 0.13 -s 25 -d 31 -p cbr -e 24 -c 2 -i 49 -a 2 -x {25.0 0.24 1 ------- null}
+ -t 0.13 -s 26 -d 31 -p cbr -e 1000 -c 3 -i 50 -a 3 -x {26.0 0.25 0 ------- null}
- -t 0.13 -s 26 -d 31 -p cbr -e 1000 -c 3 -i 50 -a 3 -x {26.0 0.25 0 ------- null}
h -t 0.13 -s 26 -d 31 -p cbr -e 1000 -c 3 -i 50 -a 3 -x {26.0 0.25 -1 ------- null}
+ -t 0.13 -s 26 -d 31 -p cbr -e 24 -c 3 -i 51 -a 3 -x {26.0 0.25 1 ------- null}
+ -t 0.13 -s 27 -d 31 -p cbr -e 1000 -c 1 -i 52 -a 1 -x {27.0 0.26 0 ------- null}
- -t 0.13 -s 27 -d 31 -p cbr -e 1000 -c 1 -i 52 -a 1 -x {27.0 0.26 0 ------- null}
h -t 0.13 -s 27 -d 31 -p cbr -e 1000 -c 1 -i 52 -a 1 -x {27.0 0.26 -1 ------- null}
+ -t 0.13 -s 27 -d 31 -p cbr -e 24 -c 1 -i 53 -a 1 -x {27.0 0.26 1 ------- null}
+ -t 0.13 -s 28 -d 31 -p cbr -e 1000 -c 2 -i 54 -a 2 -x {28.0 0.27 0 ------- null}
- -t 0.13 -s 28 -d 31 -p cbr -e 1000 -c 2 -i 54 -a 2 -x {28.0 0.27 0 ------- null}
h -t 0.13 -s 28 -d 31 -p cbr -e 1000 -c 2 -i 54 -a 2 -x {28.0 0.27 -1 ------- null}
+ -t 0.13 -s 28 -d 31 -p cbr -e 24 -c 2 -i 55 -a 2 -x {28.0 0.27 1 ------- null}
+ -t 0.13 -s 29 -d 31 -p cbr -e 1000 -c 3 -i 56 -a 3 -x {29.0 0.28 0 ------- null}
- -t 0.13 -s 29 -d 31 -p cbr -e 1000 -c 3 -i 56 -a 3 -x {29.0 0.28 0 ------- null}
h -t 0.13 -s 29 -d 31 -p cbr -e 1000 -c 3 -i 56 -a 3 -x {29.0 0.28 -1 ------- null}
+ -t 0.13 -s 29 -d 31 -p cbr -e 24 -c 3 -i 57 -a 3 -x {29.0 0.28 1 ------- null}
+ -t 0.13 -s 30 -d 31 -p cbr -e 1000 -c 1 -i 58 -a 1 -x {30.0 0.29 0 ------- null}
- -t 0.13 -s 30 -d 31 -p cbr -e 1000 -c 1 -i 58 -a 1 -x {30.0 0.29 0 ------- null}
h -t 0.13 -s 30 -d 31 -p cbr -e 1000 -c 1 -i 58 -a 1 -x {30.0 0.29 -1 ------- null}
+ -t 0.13 -s 30 -d 31 -p cbr -e 24 -c 1 -i 59 -a 1 -x {30.0 0.29 1 ------- null}
d -t 0.130004 -s 30 -d 31 -p cbr -e 1000 -c 3 -i 2 -a 3 -x {2.0 0.1 0 ------- null}
d -t 0.130004 -s 30 -d 31 -p cbr -e 1000 -c 1 -i 4 -a 1 -x {3.0 0.2 0 ------- null}
d -t 0.130004 -s 29 -d 31 -p cbr -e 1000 -c 3 -i 2 -a 3 -x {2.0 0.1 0 ------- null}
d -t 0.130004 -s 29 -d 31 -p cbr -e 1000 -c 1 -i 4 -a 1 -x {3.0 0.2 0 ------- null}
d -t 0.130004 -s 28 -d 31 -p cbr -e 1000 -c 3 -i 2 -a 3 -x {2.0 0.1 0 ------- null}
d -t 0.130004 -s 28 -d 31 -p cbr -e 1000 -c 1 -i 4 -a 1 -x {3.0 0.2 0 ------- null}
d -t 0.130004 -s 27 -d 31 -p cbr -e 1000 -c 3 -i 2 -a 3 -x {2.0 0.1 0 ------- null}
d -t 0.130004 -s 27 -d 31 -p cbr -e 1000 -c 1 -i 4 -a 1 -x {3.0 0.2 0 ------- null}
d -t 0.130004 -s 26 -d 31 -p cbr -e 1000 -c 3 -i 2 -a 3 -x {2.0 0.1 0 ------- null}
d -t 0.130004 -s 26 -d 31 -p cbr -e 1000 -c 1 -i 4 -a 1 -x {3.0 0.2 0 ------- null}
d -t 0.130004 -s 25 -d 31 -p cbr -e 1000 -c 3 -i 2 -a 3 -x {2.0 0.1 0 ------- null}
d -t 0.130004 -s 25 -d 31 -p cbr -e 1000 -c 1 -i 4 -a 1 -x {3.0 0.2 0 ------- null}
d -t 0.130004 -s 24 -d 31 -p cbr -e 1000 -c 3 -i 2 -a 3 -x {2.0 0.1 0 ------- null}
d -t 0.130004 -s 24 -d 31 -p cbr -e 1000 -c 1 -i 4 -a 1 -x {3.0 0.2 0 ------- null}
d -t 0.130004 -s 23 -d 31 -p cbr -e 1000 -c 3 -i 2 -a 3 -x {2.0 0.1 0 ------- null}
d -t 0.130004 -s 23 -d 31 -p cbr -e 1000 -c 1 -i 4 -a 1 -x {3.0 0.2 0 ------- null}
d -t 0.130004 -s 22 -d 31 -p cbr -e 1000 -c 3 -i 2 -a 3 -x {2.0 0.1 0 ------- null}
d -t 0.130004 -s 22 -d 31 -p cbr -e 1000 -c 1 -i 4 -a 1 -x {3.0 0.2 0 ------- null}
d -t 0.130004 -s 21 -d 31 -p cbr -e 1000 -c 3 -i 2 -a 3 -x {2.0 0.1 0 ------- null}
d -t 0.130004 -s 21 -d 31 -p cbr -e 1000 -c 1 -i 4 -a 1 -x {3.0 0.2 0 ------- null}
d -t 0.130004 -s 20 -d 31 -p cbr -e 1000 -c 3 -i 2 -a 3 -x {2.0 0.1 0 ------- null}
d -t 0.130004 -s 20 -d 31 -p cbr -e 1000 -c 1 -i 4 -a 1 -x {3.0 0.2 0 ------- null}
d -t 0.130004 -s 19 -d 31 -p cbr -e 1000 -c 3 -i 2 -a 3 -x {2.0 0.1 0 ------- null}
d -t 0.130004 -s 19 -d 31 -p cbr -e 1000 -c 1 -i 4 -a 1 -x {3.0 0.2 0 ------- null}
d -t 0.130004 -s 18 -d 31 -p cbr -e 1000 -c 3 -i 2 -a 3 -x {2.0 0.1 0 ------- null}
d -t 0.130004 -s 18 -d 31 -p cbr -e 1000 -c 1 -i 4 -a 1 -x {3.0 0.2 0 ------- null}
d -t 0.130004 -s 17 -d 31 -p cbr -e 1000 -c 3 -i 2 -a 3 -x {2.0 0.1 0 ------- null}
d -t 0.130004 -s 17 -d 31 -p cbr -e 1000 -c 1 -i 4 -a 1 -x {3.0 0.2 0 ------- null}
d -t 0.130004 -s 16 -d 31 -p cbr -e 1000 -c 3 -i 2 -a 3 -x {2.0 0.1 0 ------- null}
d -t 0.130004 -s 16 -d 31 -p cbr -e 1000 -c 1 -i 4 -a 1 -x {3.0 0.2 0 ------- null}
d -t 0.130004 -s 15 -d 31 -p cbr -e 1000 -c 3 -i 2 -a 3 -x {2.0 0.1 0 ------- null}
d -t 0.130004 -s 15 -d 31 -p cbr -e 1000 -c 1 -i 4 -a 1 -x {3.0 0.2 0 ------- null}
d -t 0.130004 -s 14 -d 31 -p cbr -e 1000 -c 3 -i 2 -a 3 -x {2.0 0.1 0 ------- null}
d -t 0.130004 -s 14 -d 31 -p cbr -e 1000 -c 1 -i 4 -a 1 -x {3.0 0.2 0 ------- null}
d -t 0.130004 -s 13 -d 31 -p cbr -e 1000 -c 3 -i 2 -a 3 -x {2.0 0.1 0 ------- null}
d -t 0.130004 -s 13 -d 31 -p cbr -e 1000 -c 1 -i 4 -a 1 -x {3.0 0.2 0 ------- null}
d -t 0.130004 -s 12 -d 31 -p cbr -e 1000 -c 3 -i 2 -a 3 -x {2.0 0.1 0 ------- null}
d -t 0.130004 -s 12 -d 31 -p cbr -e 1000 -c 1 -i 4 -a 1 -x {3.0 0.2 0 ------- null}
d -t 0.130004 -s 11 -d 31 -p cbr -e 1000 -c 3 -i 2 -a 3 -x {2.0 0.1 0 ------- null}
d -t 0.130004 -s 11 -d 31 -p cbr -e 1000 -c 1 -i 4 -a 1 -x {3.0 0.2 0 ------- null}
d -t 0.130004 -s 10 -d 31 -p cbr -e 1000 -c 3 -i 2 -a 3 -x {2.0 0.1 0 ------- null}
d -t 0.130004 -s 10 -d 31 -p cbr -e 1000 -c 1 -i 4 -a 1 -x {3.0 0.2 0 ------- null}
d -t 0.130004 -s 9 -d 31 -p cbr -e 1000 -c 3 -i 2 -a 3 -x {2.0 0.1 0 ------- null}
d -t 0.130004 -s 9 -d 31 -p cbr -e 1000 -c 1 -i 4 -a 1 -x {3.0 0.2 0 ------- null}
d -t 0.130004 -s 8 -d 31 -p cbr -e 1000 -c 3 -i 2 -a 3 -x {2.0 0.1 0 ------- null}
d -t 0.130004 -s 8 -d 31 -p cbr -e 1000 -c 1 -i 4 -a 1 -x {3.0 0.2 0 ------- null}
d -t 0.130004 -s 7 -d 31 -p cbr -e 1000 -c 3 -i 2 -a 3 -x {2.0 0.1 0 ------- null}
d -t 0.130004 -s 7 -d 31 -p cbr -e 1000 -c 1 -i 4 -a 1 -x {3.0 0.2 0 ------- null}
d -t 0.130004 -s 6 -d 31 -p cbr -e 1000 -c 3 -i 2 -a 3 -x {2.0 0.1 0 ------- null}
d -t 0.130004 -s 6 -d 31 -p cbr -e 1000 -c 1 -i 4 -a 1 -x {3.0 0.2 0 ------- null}
d -t 0.130004 -s 5 -d 31 -p cbr -e 1000 -c 3 -i 2 -a 3 -x {2.0 0.1 0 ------- null}
d -t 0.130004 -s 5 -d 31 -p cbr -e 1000 -c 1 -i 4 -a 1 -x {3.0 0.2 0 ------- null}
d -t 0.130004 -s 4 -d 31 -p cbr -e 1000 -c 3 -i 2 -a 3 -x {2.0 0.1 0 ------- null}
d -t 0.130004 -s 4 -d 31 -p cbr -e 1000 -c 1 -i 4 -a 1 -x {3.0 0.2 0 ------- null}
d -t 0.130004 -s 1 -d 31 -p cbr -e 1000 -c 3 -i 2 -a 3 -x {2.0 0.1 0 ------- null}
d -t 0.130004 -s 1 -d 31 -p cbr -e 1000 -c 1 -i 4 -a 1 -x {3.0 0.2 0 ------- null}
d -t 0.130004 -s 0 -d 31 -p cbr -e 1000 -c 3 -i 2 -a 3 -x {2.0 0.1 0 ------- null}
d -t 0.130004 -s 0 -d 31 -p cbr -e 1000 -c 1 -i 4 -a 1 -x {3.0 0.2 0 ------- null}
d -t 0.130004 -s 30 -d 31 -p cbr -e 1000 -c 2 -i 6 -a 2 -x {4.0 0.3 0 ------- null}
d -t 0.130004 -s 29 -d 31 -p cbr -e 1000 -c 2 -i 6 -a 2 -x {4.0 0.3 0 ------- null}
d -t 0.130004 -s 28 -d 31 -p cbr -e 1000 -c 2 -i 6 -a 2 -x {4.0 0.3 0 ------- null}
d -t 0.130004 -s 27 -d 31 -p cbr -e 1000 -c 2 -i 6 -a 2 -x {4.0 0.3 0 ------- null}
d -t 0.130004 -s 26 -d 31 -p cbr -e 1000 -c 2 -i 6 -a 2 -x {4.0 0.3 0 ------- null}
d -t 0.130004 -s 25 -d 31 -p cbr -e 1000 -c 2 -i 6 -a 2 -x {4.0 0.3 0 ------- null}
d -t 0.130004 -s 24 -d 31 -p cbr -e 1000 -c 2 -i 6 -a 2 -x {4.0 0.3 0 ------- null}
d -t 0.130004 -s 23 -d 31 -p cbr -e 1000 -c 2 -i 6 -a 2 -x {4.0 0.3 0 ------- null}
d -t 0.130004 -s 22 -d 31 -p cbr -e 1000 -c 2 -i 6 -a 2 -x {4.0 0.3 0 ------- null}
d -t 0.130004 -s 21 -d 31 -p cbr -e 1000 -c 2 -i 6 -a 2 -x {4.0 0.3 0 ------- null}
d -t 0.130004 -s 20 -d 31 -p cbr -e 1000 -c 2 -i 6 -a 2 -x {4.0 0.3 0 ------- null}
d -t 0.130004 -s 19 -d 31 -p cbr -e 1000 -c 2 -i 6 -a 2 -x {4.0 0.3 0 ------- null}
d -t 0.130004 -s 18 -d 31 -p cbr -e 1000 -c 2 -i 6 -a 2 -x {4.0 0.3 0 ------- null}
d -t 0.130004 -s 17 -d 31 -p cbr -e 1000 -c 2 -i 6 -a 2 -x {4.0 0.3 0 ------- null}
d -t 0.130004 -s 16 -d 31 -p cbr -e 1000 -c 2 -i 6 -a 2 -x {4.0 0.3 0 ------- null}
d -t 0.130004 -s 15 -d 31 -p cbr -e 1000 -c 2 -i 6 -a 2 -x {4.0 0.3 0 ------- null}
d -t 0.130004 -s 14 -d 31 -p cbr -e 1000 -c 2 -i 6 -a 2 -x {4.0 0.3 0 ------- null}
d -t 0.130004 -s 13 -d 31 -p cbr -e 1000 -c 2 -i 6 -a 2 -x {4.0 0.3 0 ------- null}
d -t 0.130004 -s 12 -d 31 -p cbr -e 1000 -c 2 -i 6 -a 2 -x {4.0 0.3 0 ------- null}
d -t 0.130004 -s 11 -d 31 -p cbr -e 1000 -c 2 -i 6 -a 2 -x {4.0 0.3 0 ------- null}
d -t 0.130004 -s 10 -d 31 -p cbr -e 1000 -c 2 -i 6 -a 2 -x {4.0 0.3 0 ------- null}
d -t 0.130004 -s 9 -d 31 -p cbr -e 1000 -c 2 -i 6 -a 2 -x {4.0 0.3 0 ------- null}
d -t 0.130004 -s 8 -d 31 -p cbr -e 1000 -c 2 -i 6 -a 2 -x {4.0 0.3 0 ------- null}
d -t 0.130004 -s 7 -d 31 -p cbr -e 1000 -c 2 -i 6 -a 2 -x {4.0 0.3 0 ------- null}
d -t 0.130004 -s 6 -d 31 -p cbr -e 1000 -c 2 -i 6 -a 2 -x {4.0 0.3 0 ------- null}
d -t 0.130004 -s 5 -d 31 -p cbr -e 1000 -c 2 -i 6 -a 2 -x {4.0 0.3 0 ------- null}
d -t 0.130004 -s 3 -d 31 -p cbr -e 1000 -c 3 -i 2 -a 3 -x {2.0 0.1 0 ------- null}
d -t 0.130004 -s 3 -d 31 -p cbr -e 1000 -c 2 -i 6 -a 2 -x {4.0 0.3 0 ------- null}
d -t 0.130004 -s 2 -d 31 -p cbr -e 1000 -c 1 -i 4 -a 1 -x {3.0 0.2 0 ------- null}
d -t 0.130004 -s 2 -d 31 -p cbr -e 1000 -c 2 -i 6 -a 2 -x {4.0 0.3 0 ------- null}
d -t 0.130004 -s 1 -d 31 -p cbr -e 1000 -c 2 -i 6 -a 2 -x {4.0 0.3 0 ------- null}
d -t 0.130004 -s 0 -d 31 -p cbr -e 1000 -c 2 -i 6 -a 2 -x {4.0 0.3 0 ------- null}
d -t 0.130004 -s 30 -d 31 -p cbr -e 1000 -c 3 -i 8 -a 3 -x {5.0 0.4 0 ------- null}
d -t 0.130004 -s 29 -d 31 -p cbr -e 1000 -c 3 -i 8 -a 3 -x {5.0 0.4 0 ------- null}
d -t 0.130004 -s 28 -d 31 -p cbr -e 1000 -c 3 -i 8 -a 3 -x {5.0 0.4 0 ------- null}
d -t 0.130004 -s 27 -d 31 -p cbr -e 1000 -c 3 -i 8 -a 3 -x {5.0 0.4 0 ------- null}
d -t 0.130004 -s 26 -d 31 -p cbr -e 1000 -c 3 -i 8 -a 3 -x {5.0 0.4 0 ------- null}
d -t 0.130004 -s 25 -d 31 -p cbr -e 1000 -c 3 -i 8 -a 3 -x {5.0 0.4 0 ------- null}
d -t 0.130004 -s 24 -d 31 -p cbr -e 1000 -c 3 -i 8 -a 3 -x {5.0 0.4 0 ------- null}
d -t 0.130004 -s 23 -d 31 -p cbr -e 1000 -c 3 -i 8 -a 3 -x {5.0 0.4 0 ------- null}
d -t 0.130004 -s 22 -d 31 -p cbr -e 1000 -c 3 -i 8 -a 3 -x {5.0 0.4 0 ------- null}
d -t 0.130004 -s 21 -d 31 -p cbr -e 1000 -c 3 -i 8 -a 3 -x {5.0 0.4 0 ------- null}
d -t 0.130004 -s 20 -d 31 -p cbr -e 1000 -c 3 -i 8 -a 3 -x {5.0 0.4 0 ------- null}
d -t 0.130004 -s 19 -d 31 -p cbr -e 1000 -c 3 -i 8 -a 3 -x {5.0 0.4 0 ------- null}
d -t 0.130004 -s 18 -d 31 -p cbr -e 1000 -c 3 -i 8 -a 3 -x {5.0 0.4 0 ------- null}
d -t 0.130004 -s 17 -d 31 -p cbr -e 1000 -c 3 -i 8 -a 3 -x {5.0 0.4 0 ------- null}
d -t 0.130004 -s 16 -d 31 -p cbr -e 1000 -c 3 -i 8 -a 3 -x {5.0 0.4 0 ------- null}
d -t 0.130004 -s 15 -d 31 -p cbr -e 1000 -c 3 -i 8 -a 3 -x {5.0 0.4 0 ------- null}
d -t 0.130004 -s 14 -d 31 -p cbr -e 1000 -c 3 -i 8 -a 3 -x {5.0 0.4 0 ------- null}
d -t 0.130004 -s 13 -d 31 -p cbr -e 1000 -c 3 -i 8 -a 3 -x {5.0 0.4 0 ------- null}
d -t 0.130004 -s 12 -d 31 -p cbr -e 1000 -c 3 -i 8 -a 3 -x {5.0 0.4 0 ------- null}
d -t 0.130004 -s 11 -d 31 -p cbr -e 1000 -c 3 -i 8 -a 3 -x {5.0 0.4 0 ------- null}
d -t 0.130004 -s 10 -d 31 -p cbr -e 1000 -c 3 -i 8 -a 3 -x {5.0 0.4 0 ------- null}
d -t 0.130004 -s 9 -d 31 -p cbr -e 1000 -c 3 -i 8 -a 3 -x {5.0 0.4 0 ------- null}
d -t 0.130004 -s 8 -d 31 -p cbr -e 1000 -c 3 -i 8 -a 3 -x {5.0 0.4 0 ------- null}
d -t 0.130004 -s 7 -d 31 -p cbr -e 1000 -c 3 -i 8 -a 3 -x {5.0 0.4 0 ------- null}
d -t 0.130004 -s 6 -d 31 -p cbr -e 1000 -c 3 -i 8 -a 3 -x {5.0 0.4 0 ------- null}
d -t 0.130004 -s 4 -d 31 -p cbr -e 1000 -c 3 -i 8 -a 3 -x {5.0 0.4 0 ------- null}
d -t 0.130004 -s 3 -d 31 -p cbr -e 1000 -c 3 -i 8 -a 3 -x {5.0 0.4 0 ------- null}
d -t 0.130004 -s 2 -d 31 -p cbr -e 1000 -c 3 -i 8 -a 3 -x {5.0 0.4 0 ------- null}
d -t 0.130004 -s 1 -d 31 -p cbr -e 1000 -c 3 -i 8 -a 3 -x {5.0 0.4 0 ------- null}
d -t 0.130004 -s 0 -d 31 -p cbr -e 1000 -c 3 -i 8 -a 3 -x {5.0 0.4 0 ------- null}
d -t 0.130004 -s 30 -d 31 -p cbr -e 1000 -c 1 -i 10 -a 1 -x {6.0 0.5 0 ------- null}
d -t 0.130004 -s 29 -d 31 -p cbr -e 1000 -c 1 -i 10 -a 1 -x {6.0 0.5 0 ------- null}
d -t 0.130004 -s 28 -d 31 -p cbr -e 1000 -c 1 -i 10 -a 1 -x {6.0 0.5 0 ------- null}
d -t 0.130004 -s 27 -d 31 -p cbr -e 1000 -c 1 -i 10 -a 1 -x {6.0 0.5 0 ------- null}
d -t 0.130004 -s 26 -d 31 -p cbr -e 1000 -c 1 -i 10 -a 1 -x {6.0 0.5 0 ------- null}
d -t 0.130004 -s 25 -d 31 -p cbr -e 1000 -c 1 -i 10 -a 1 -x {6.0 0.5 0 ------- null}
d -t 0.130004 -s 24 -d 31 -p cbr -e 1000 -c 1 -i 10 -a 1 -x {6.0 0.5 0 ------- null}
d -t 0.130004 -s 23 -d 31 -p cbr -e 1000 -c 1 -i 10 -a 1 -x {6.0 0.5 0 ------- null}
d -t 0.130004 -s 22 -d 31 -p cbr -e 1000 -c 1 -i 10 -a 1 -x {6.0 0.5 0 ------- null}
d -t 0.130004 -s 21 -d 31 -p cbr -e 1000 -c 1 -i 10 -a 1 -x {6.0 0.5 0 ------- null}
d -t 0.130004 -s 20 -d 31 -p cbr -e 1000 -c 1 -i 10 -a 1 -x {6.0 0.5 0 ------- null}
d -t 0.130004 -s 19 -d 31 -p cbr -e 1000 -c 1 -i 10 -a 1 -x {6.0 0.5 0 ------- null}
d -t 0.130004 -s 18 -d 31 -p cbr -e 1000 -c 1 -i 10 -a 1 -x {6.0 0.5 0 ------- null}
d -t 0.130004 -s 17 -d 31 -p cbr -e 1000 -c 1 -i 10 -a 1 -x {6.0 0.5 0 ------- null}
d -t 0.130004 -s 16 -d 31 -p cbr -e 1000 -c 1 -i 10 -a 1 -x {6.0 0.5 0 ------- null}
d -t 0.130004 -s 15 -d 31 -p cbr -e 1000 -c 1 -i 10 -a 1 -x {6.0 0.5 0 ------- null}
d -t 0.130004 -s 14 -d 31 -p cbr -e 1000 -c 1 -i 10 -a 1 -x {6.0 0.5 0 ------- null}
d -t 0.130004 -s 13 -d 31 -p cbr -e 1000 -c 1 -i 10 -a 1 -x {6.0 0.5 0 ------- null}
d -t 0.130004 -s 12 -d 31 -p cbr -e 1000 -c 1 -i 10 -a 1 -x {6.0 0.5 0 ------- null}