V -t * -v 1.0a5 -a 0
A -t * -n 1 -p 0 -o 0x7fffffff -c 30 -a 1
A -t * -h 1 -m 1073741823 -s 0
c -t * -i 1 -n Blue
c -t * -i 2 -n Red
c -t * -i 3 -n Green
n -t * -a 0 -s 0 -S UP -v circle -c black -i black
n -t * -a 1 -s 1 -S UP -v circle -c black -i black
n -t * -a 2 -s 2 -S UP -v circle -c black -i black
n -t * -a 3 -s 3 -S UP -v circle -c black -i black
n -t * -a 4 -s 4 -S UP -v circle -c black -i black
n -t * -a 5 -s 5 -S UP -v circle -c black -i black
n -t * -a 6 -s 6 -S UP -v circle -c black -i black
n -t * -a 7 -s 7 -S UP -v circle -c black -i black
n -t * -a 8 -s 8 -S UP -v circle -c black -i black
n -t * -a 9 -s 9 -S UP -v circle -c black -i black
n -t * -a 10 -s 10 -S UP -v circle -c black -i black
l -t * -s 0 -d 1 -S UP -r 1000000 -D 0 -c black
l -t * -s 1 -d 2 -S UP -r 1000000 -D 0 -c black
l -t * -s 2 -d 3 -S UP -r 1000000 -D 0 -c black
l -t * -s 3 -d 4 -S UP -r 1000000 -D 0 -c black
l -t * -s 4 -d 5 -S UP -r 1000000 -D 0 -c black
l -t * -s 5 -d 6 -S UP -r 1000000 -D 0 -c black
l -t * -s 6 -d 7 -S UP -r 1000000 -D 0 -c black
l -t * -s 7 -d 8 -S UP -r 1000000 -D 0 -c black
l -t * -s 8 -d 9 -S UP -r 1000000 -D 0 -c black
l -t * -s 9 -d 10 -S UP -r 1000000 -D 0 -c black
X -t * -n 11 -r 1Mb -D 30ms -o left
L -t * -s 11 -d 0 -o up
L -t * -s 11 -d 1 -o down
L -t * -s 11 -d 2 -o up
L -t * -s 11 -d 3 -o down
L -t * -s 11 -d 4 -o up
L -t * -s 11 -d 5 -o down
L -t * -s 11 -d 6 -o up
L -t * -s 11 -d 7 -o down
L -t * -s 11 -d 8 -o up
L -t * -s 11 -d 9 -o down
L -t * -s 11 -d 10 -o up
+ -t 0.1 -s 1 -d 0 -p cbr -e 1000 -c 2 -i 0 -a 2 -x {1.0 0.0 0 ------- null}
- -t 0.1 -s 1 -d 0 -p cbr -e 1000 -c 2 -i 0 -a 2 -x {1.0 0.0 0 ------- null}
h -t 0.1 -s 1 -d 0 -p cbr -e 1000 -c 2 -i 0 -a 2 -x {1.0 0.0 -1 ------- null}
+ -t 0.1 -s 1 -d 0 -p cbr -e 24 -c 2 -i 1 -a 2 -x {1.0 0.0 1 ------- null}
h -t 0.1 -s 2 -d 11 -p cbr -e 1000 -c 3 -i 2 -a 3 -x {2.0 0.1 0 ------- null}
h -t 0.1 -s 2 -d 11 -p cbr -e 24 -c 3 -i 3 -a 3 -x {2.0 0.1 1 ------- null}
h -t 0.1 -s 3 -d 11 -p cbr -e 1000 -c 1 -i 4 -a 1 -x {3.0 0.2 0 ------- null}
h -t 0.1 -s 3 -d 11 -p cbr -e 24 -c 1 -i 5 -a 1 -x {3.0 0.2 1 ------- null}
h -t 0.1 -s 4 -d 11 -p cbr -e 1000 -c 2 -i 6 -a 2 -x {4.0 0.3 0 ------- null}
h -t 0.1 -s 4 -d 11 -p cbr -e 24 -c 2 -i 7 -a 2 -x {4.0 0.3 1 ------- null}
h -t 0.1 -s 5 -d 11 -p cbr -e 1000 -c 3 -i 8 -a 3 -x {5.0 0.4 0 ------- null}
h -t 0.1 -s 5 -d 11 -p cbr -e 24 -c 3 -i 9 -a 3 -x {5.0 0.4 1 ------- null}
h -t 0.1 -s 6 -d 11 -p cbr -e 1000 -c 1 -i 10 -a 1 -x {6.0 0.5 0 ------- null}
h -t 0.1 -s 6 -d 11 -p cbr -e 24 -c 1 -i 11 -a 1 -x {6.0 0.5 1 ------- null}
h -t 0.1 -s 7 -d 11 -p cbr -e 1000 -c 2 -i 12 -a 2 -x {7.0 0.6 0 ------- null}
h -t 0.1 -s 7 -d 11 -p cbr -e 24 -c 2 -i 13 -a 2 -x {7.0 0.6 1 ------- null}
h -t 0.1 -s 8 -d 11 -p cbr -e 1000 -c 3 -i 14 -a 3 -x {8.0 0.7 0 ------- null}
h -t 0.1 -s 8 -d 11 -p cbr -e 24 -c 3 -i 15 -a 3 -x {8.0 0.7 1 ------- null}
h -t 0.1 -s 9 -d 11 -p cbr -e 1000 -c 1 -i 16 -a 1 -x {9.0 0.8 0 ------- null}
h -t 0.1 -s 9 -d 11 -p cbr -e 24 -c 1 -i 17 -a 1 -x {9.0 0.8 1 ------- null}
h -t 0.1 -s 10 -d 11 -p cbr -e 1000 -c 2 -i 18 -a 2 -x {10.0 0.9 0 ------- null}
h -t 0.1 -s 10 -d 11 -p cbr -e 24 -c 2 -i 19 -a 2 -x {10.0 0.9 1 ------- null}
r -t 0.108 -s 1 -d 0 -p cbr -e 1000 -c 2 -i 0 -a 2 -x {1.0 0.0 0 ------- null}
- -t 0.108 -s 1 -d 0 -p cbr -e 24 -c 2 -i 1 -a 2 -x {1.0 0.0 1 ------- null}
h -t 0.108 -s 1 -d 0 -p cbr -e 24 -c 2 -i 1 -a 2 -x {1.0 0.0 -1 ------- null}
r -t 0.108192 -s 1 -d 0 -p cbr -e 24 -c 2 -i 1 -a 2 -x {1.0 0.0 1 ------- null}
+ -t 0.13 -s 2 -d 11 -p cbr -e 1000 -c 3 -i 2 -a 3 -x {2.0 0.1 0 ------- null}
- -t 0.13 -s 2 -d 11 -p cbr -e 1000 -c 3 -i 2 -a 3 -x {2.0 0.1 0 ------- null}
h -t 0.13 -s 2 -d 11 -p cbr -e 1000 -c 3 -i 2 -a 3 -x {2.0 0.1 -1 ------- null}
+ -t 0.13 -s 2 -d 11 -p cbr -e 24 -c 3 -i 3 -a 3 -x {2.0 0.1 1 ------- null}
+ -t 0.13 -s 3 -d 11 -p cbr -e 1000 -c 1 -i 4 -a 1 -x {3.0 0.2 0 ------- null}
- -t 0.13 -s 3 -d 11 -p cbr -e 1000 -c 1 -i 4 -a 1 -x {3.0 0.2 0 ------- null}
h -t 0.13 -s 3 -d 11 -p cbr -e 1000 -c 1 -i 4 -a 1 -x {3.0 0.2 -1 ------- null}
+ -t 0.13 -s 3 -d 11 -p cbr -e 24 -c 1 -i 5 -a 1 -x {3.0 0.2 1 ------- null}
+ -t 0.13 -s 4 -d 11 -p cbr -e 1000 -c 2 -i 6 -a 2 -x {4.0 0.3 0 ------- null}
- -t 0.13 -s 4 -d 11 -p cbr -e 1000 -c 2 -i 6 -a 2 -x {4.0 0.3 0 ------- null}
h -t 0.13 -s 4 -d 11 -p cbr -e 1000 -c 2 -i 6 -a 2 -x {4.0 0.3 -1 ------- null}
+ -t 0.13 -s 4 -d 11 -p cbr -e 24 -c 2 -i 7 -a 2 -x {4.0 0.3 1 ------- null}
+ -t 0.13 -s 5 -d 11 -p cbr -e 1000 -c 3 -i 8 -a 3 -x {5.0 0.4 0 ------- null}
- -t 0.13 -s 5 -d 11 -p cbr -e 1000 -c 3 -i 8 -a 3 -x {5.0 0.4 0 ------- null}
h -t 0.13 -s 5 -d 11 -p cbr -e 1000 -c 3 -i 8 -a 3 -x {5.0 0.4 -1 ------- null}
+ -t 0.13 -s 5 -d 11 -p cbr -e 24 -c 3 -i 9 -a 3 -x {5.0 0.4 1 ------- null}
+ -t 0.13 -s 6 -d 11 -p cbr -e 1000 -c 1 -i 10 -a 1 -x {6.0 0.5 0 ------- null}
- -t 0.13 -s 6 -d 11 -p cbr -e 1000 -c 1 -i 10 -a 1 -x {6.0 0.5 0 ------- null}
h -t 0.13 -s 6 -d 11 -p cbr -e 1000 -c 1 -i 10 -a 1 -x {6.0 0.5 -1 ------- null}
+ -t 0.13 -s 6 -d 11 -p cbr -e 24 -c 1 -i 11 -a 1 -x {6.0 0.5 1 ------- null}
+ -t 0.13 -s 7 -d 11 -p cbr -e 1000 -c 2 -i 12 -a 2 -x {7.0 0.6 0 ------- null}
- -t 0.13 -s 7 -d 11 -p cbr -e 1000 -c 2 -i 12 -a 2 -x {7.0 0.6 0 ------- null}
h -t 0.13 -s 7 -d 11 -p cbr -e 1000 -c 2 -i 12 -a 2 -x {7.0 0.6 -1 ------- null}
+ -t 0.13 -s 7 -d 11 -p cbr -e 24 -c 2 -i 13 -a 2 -x {7.0 0.6 1 ------- null}
+ -t 0.13 -s 8 -d 11 -p cbr -e 1000 -c 3 -i 14 -a 3 -x {8.0 0.7 0 ------- null}
- -t 0.13 -s 8 -d 11 -p cbr -e 1000 -c 3 -i 14 -a 3 -x {8.0 0.7 0 ------- null}
h -t 0.13 -s 8 -d 11 -p cbr -e 1000 -c 3 -i 14 -a 3 -x {8.0 0.7 -1 ------- null}
+ -t 0.13 -s 8 -d 11 -p cbr -e 24 -c 3 -i 15 -a 3 -x {8.0 0.7 1 ------- null}
+ -t 0.13 -s 9 -d 11 -p cbr -e 1000 -c 1 -i 16 -a 1 -x {9.0 0.8 0 ------- null}
- -t 0.13 -s 9 -d 11 -p cbr -e 1000 -c 1 -i 16 -a 1 -x {9.0 0.8 0 ------- null}
h -t 0.13 -s 9 -d 11 -p cbr -e 1000 -c 1 -i 16 -a 1 -x {9.0 0.8 -1 ------- null}
+ -t 0.13 -s 9 -d 11 -p cbr -e 24 -c 1 -i 17 -a 1 -x {9.0 0.8 1 ------- null}
+ -t 0.13 -s 10 -d 11 -p cbr -e 1000 -c 2 -i 18 -a 2 -x {10.0 0.9 0 ------- null}
- -t 0.13 -s 10 -d 11 -p cbr -e 1000 -c 2 -i 18 -a 2 -x {10.0 0.9 0 ------- null}
h -t 0.13 -s 10 -d 11 -p cbr -e 1000 -c 2 -i 18 -a 2 -x {10.0 0.9 -1 ------- null}
+ -t 0.13 -s 10 -d 11 -p cbr -e 24 -c 2 -i 19 -a 2 -x {10.0 0.9 1 ------- null}
d -t 0.130004 -s 10 -d 11 -p cbr -e 1000 -c 3 -i 2 -a 3 -x {2.0 0.1 0 ------- null}
d -t 0.130004 -s 10 -d 11 -p cbr -e 1000 -c 1 -i 4 -a 1 -x {3.0 0.2 0 ------- null}
d -t 0.130004 -s 9 -d 11 -p cbr -e 1000 -c 3 -i 2 -a 3 -x {2.0 0.1 0 ------- null}
d -t 0.130004 -s 9 -d 11 -p cbr -e 1000 -c 1 -i 4 -a 1 -x {3.0 0.2 0 ------- null}
d -t 0.130004 -s 8 -d 11 -p cbr -e 1000 -c 3 -i 2 -a 3 -x {2.0 0.1 0 ------- null}
d -t 0.130004 -s 8 -d 11 -p cbr -e 1000 -c 1 -i 4 -a 1 -x {3.0 0.2 0 ------- null}
d -t 0.130004 -s 7 -d 11 -p cbr -e 1000 -c 3 -i 2 -a 3 -x {2.0 0.1 0 ------- null}
d -t 0.130004 -s 7 -d 11 -p cbr -e 1000 -c 1 -i 4 -a 1 -x {3.0 0.2 0 ------- null}
d -t 0.130004 -s 6 -d 11 -p cbr -e 1000 -c 3 -i 2 -a 3 -x {2.0 0.1 0 ------- null}
d -t 0.130004 -s 6 -d 11 -p cbr -e 1000 -c 1 -i 4 -a 1 -x {3.0 0.2 0 ------- null}
d -t 0.130004 -s 5 -d 11 -p cbr -e 1000 -c 3 -i 2 -a 3 -x {2.0 0.1 0 ------- null}
d -t 0.130004 -s 5 -d 11 -p cbr -e 1000 -c 1 -i 4 -a 1 -x {3.0 0.2 0 ------- null}
d -t 0.130004 -s 4 -d 11 -p cbr -e 1000 -c 3 -i 2 -a 3 -x {2.0 0.1 0 ------- null}
d -t 0.130004 -s 4 -d 11 -p cbr -e 1000 -c 1 -i 4 -a 1 -x {3.0 0.2 0 ------- null}
d -t 0.130004 -s 1 -d 11 -p cbr -e 1000 -c 3 -i 2 -a 3 -x {2.0 0.1 0 ------- null}
d -t 0.130004 -s 1 -d 11 -p cbr -e 1000 -c 1 -i 4 -a 1 -x {3.0 0.2 0 ------- null}
d -t 0.130004 -s 0 -d 11 -p cbr -e 1000 -c 3 -i 2 -a 3 -x {2.0 0.1 0 ------- null}
d -t 0.130004 -s 0 -d 11 -p cbr -e 1000 -c 1 -i 4 -a 1 -x {3.0 0.2 0 ------- null}
d -t 0.130004 -s 10 -d 11 -p cbr -e 1000 -c 2 -i 6 -a 2 -x {4.0 0.3 0 ------- null}
d -t 0.130004 -s 9 -d 11 -p cbr -e 1000 -c 2 -i 6 -a 2 -x {4.0 0.3 0 ------- null}
d -t 0.130004 -s 8 -d 11 -p cbr -e 1000 -c 2 -i 6 -a 2 -x {4.0 0.3 0 ------- null}
d -t 0.130004 -s 7 -d 11 -p cbr -e 1000 -c 2 -i 6 -a 2 -x {4.0 0.3 0 ------- null}
d -t 0.130004 -s 6 -d 11 -p cbr -e 1000 -c 2 -i 6 -a 2 -x {4.0 0.3 0 ------- null}
d -t 0.130004 -s 5 -d 11 -p cbr -e 1000 -c 2 -i 6 -a 2 -x {4.0 0.3 0 ------- null}
d -t 0.130004 -s 3 -d 11 -p cbr -e 1000 -c 3 -i 2 -a 3 -x {2.0 0.1 0 ------- null}
d -t 0.130004 -s 3 -d 11 -p cbr -e 1000 -c 2 -i 6 -a 2 -x {4.0 0.3 0 ------- null}
d -t 0.130004 -s 2 -d 11 -p cbr -e 1000 -c 1 -i 4 -a 1 -x {3.0 0.2 0 ------- null}
d -t 0.130004 -s 2 -d 11 -p cbr -e 1000 -c 2 -i 6 -a 2 -x {4.0 0.3 0 ------- null}
d -t 0.130004 -s 1 -d 11 -p cbr -e 1000 -c 2 -i 6 -a 2 -x {4.0 0.3 0 ------- null}
d -t 0.130004 -s 0 -d 11 -p cbr -e 1000 -c 2 -i 6 -a 2 -x {4.0 0.3 0 ------- null}
d -t 0.130004 -s 10 -d 11 -p cbr -e 1000 -c 3 -i 8 -a 3 -x {5.0 0.4 0 ------- null}
d -t 0.130004 -s 9 -d 11 -p cbr -e 1000 -c 3 -i 8 -a 3 -x {5.0 0.4 0 ------- null}
d -t 0.130004 -s 8 -d 11 -p cbr -e 1000 -c 3 -i 8 -a 3 -x {5.0 0.4 0 ------- null}
d -t 0.130004 -s 7 -d 11 -p cbr -e 1000 -c 3 -i 8 -a 3 -x {5.0 0.4 0 ------- null}
d -t 0.130004 -s 6 -d 11 -p cbr -e 1000 -c 3 -i 8 -a 3 -x {5.0 0.4 0 ------- null}
d -t 0.130004 -s 4 -d 11 -p cbr -e 1000 -c 3 -i 8 -a 3 -x {5.0 0.4 0 ------- null}
d -t 0.130004 -s 3 -d 11 -p cbr -e 1000 -c 3 -i 8 -a 3 -x {5.0 0.4 0 ------- null}
d -t 0.130004 -s 2 -d 11 -p cbr -e 1000 -c 3 -i 8 -a 3 -x {5.0 0.4 0 ------- null}
d -t 0.130004 -s 1 -d 11 -p cbr -e 1000 -c 3 -i 8 -a 3 -x {5.0 0.4 0 ------- null}
d -t 0.130004 -s 0 -d 11 -p cbr -e 1000 -c 3 -i 8 -a 3 -x {5.0 0.4 0 ------- null}
d -t 0.130004 -s 10 -d 11 -p cbr -e 1000 -c 1 -i 10 -a 1 -x {6.0 0.5 0 ------- null}
d -t 0.130004 -s 9 -d 11 -p cbr -e 1000 -c 1 -i 10 -a 1 -x {6.0 0.5 0 ------- null}
d -t 0.130004 -s 8 -d 11 -p cbr -e 1000 -c 1 -i 10 -a 1 -x {6.0 0.5 0 ------- null}
d -t 0.130004 -s 7 -d 11 -p cbr -e 1000 -c 1 -i 10 -a 1 -x {6.0 0.5 0 ------- null}
d -t 0.130004 -s 5 -d 11 -p cbr -e 1000 -c 1 -i 10 -a 1 -x {6.0 0.5 0 ------- null}
d -t 0.130004 -s 4 -d 11 -p cbr -e 1000 -c 1 -i 10 -a 1 -x {6.0 0.5 0 ------- null}
d -t 0.130004 -s 3 -d 11 -p cbr -e 1000 -c 1 -i 10 -a 1 -x {6.0 0.5 0 ------- null}
d -t 0.130004 -s 2 -d 11 -p cbr -e 1000 -c 1 -i 10 -a 1 -x {6.0 0.5 0 ------- null}
d -t 0.130004 -s 1 -d 11 -p cbr -e 1000 -c 1 -i 10 -a 1 -x {6.0 0.5 0 ------- null}
d -t 0.130004 -s 0 -d 11 -p cbr -e 1000 -c 1 -i 10 -a 1 -x {6.0 0.5 0 ------- null}
d -t 0.130004 -s 10 -d 11 -p cbr -e 1000 -c 2 -i 12 -a 2 -x {7.0 0.6 0 ------- null}
d -t 0.130004 -s 9 -d 11 -p cbr -e 1000 -c 2 -i 12 -a 2 -x {7.0 0.6 0 ------- null}
d -t 0.130004 -s 8 -d 11 -p cbr -e 1000 -c 2 -i 12 -a 2 -x {7.0 0.6 0 ------- null}
d -t 0.130004 -s 6 -d 11 -p cbr -e 1000 -c 2 -i 12 -a 2 -x {7.0 0.6 0 ------- null}
d -t 0.130004 -s 5 -d 11 -p cbr -e 1000 -c 2 -i 12 -a 2 -x {7.0 0.6 0 ------- null}
d -t 0.130004 -s 4 -d 11 -p cbr -e 1000 -c 2 -i 12 -a 2 -x {7.0 0.6 0 ------- null}
d -t 0.130004 -s 3 -d 11 -p cbr -e 1000 -c 2 -i 12 -a 2 -x {7.0 0.6 0 ------- null}
d -t 0.130004 -s 2 -d 11 -p cbr -e 1000 -c 2 -i 12 -a 2 -x {7.0 0.6 0 ------- null}
d -t 0.130004 -s 1 -d 11 -p cbr -e 1000 -c 2 -i 12 -a 2 -x {7.0 0.6 0 ------- null}
d -t 0.130004 -s 0 -d 11 -p cbr -e 1000 -c 2 -i 12 -a 2 -x {7.0 0.6 0 ------- null}
d -t 0.130004 -s 10 -d 11 -p cbr -e 1000 -c 3 -i 14 -a 3 -x {8.0 0.7 0 ------- null}
d -t 0.130004 -s 9 -d 11 -p cbr -e 1000 -c 3 -i 14 -a 3 -x {8.0 0.7 0 ------- null}
d -t 0.130004 -s 7 -d 11 -p cbr -e 1000 -c 3 -i 14 -a 3 -x {8.0 0.7 0 ------- null}
d -t 0.130004 -s 6 -d 11 -p cbr -e 1000 -c 3 -i 14 -a 3 -x {8.0 0.7 0 ------- null}
d -t 0.130004 -s 5 -d 11 -p cbr -e 1000 -c 3 -i 14 -a 3 -x {8.0 0.7 0 ------- null}
d -t 0.130004 -s 4 -d 11 -p cbr -e 1000 -c 3 -i 14 -a 3 -x {8.0 0.7 0 ------- null}
d -t 0.130004 -s 3 -d 11 -p cbr -e 1000 -c 3 -i 14 -a 3 -x {8.0 0.7 0 ------- null}
d -t 0.130004 -s 2 -d 11 -p cbr -e 1000 -c 3 -i 14 -a 3 -x {8.0 0.7 0 ------- null}
d -t 0.130004 -s 1 -d 11 -p cbr -e 1000 -c 3 -i 14 -a 3 -x {8.0 0.7 0 ------- null}
d -t 0.130004 -s 0 -d 11 -p cbr -e 1000 -c 3 -i 14 -a 3 -x {8.0 0.7 0 ------- null}
d -t 0.130004 -s 10 -d 11 -p cbr -e 1000 -c 1 -i 16 -a 1 -x {9.0 0.8 0 ------- null}
d -t 0.130004 -s 8 -d 11 -p cbr -e 1000 -c 1 -i 16 -a 1 -x {9.0 0.8 0 ------- null}
d -t 0.130004 -s 7 -d 11 -p cbr -e 1000 -c 1 -i 16 -a 1 -x {9.0 0.8 0 ------- null}
d -t 0.130004 -s 6 -d 11 -p cbr -e 1000 -c 1 -i 16 -a 1 -x {9.0 0.8 0 ------- null}
d -t 0.130004 -s 5 -d 11 -p cbr -e 1000 -c 1 -i 16 -a 1 -x {9.0 0.8 0 ------- null}
d -t 0.130004 -s 4 -d 11 -p cbr -e 1000 -c 1 -i 16 -a 1 -x {9.0 0.8 0 ------- null}
d -t 0.130004 -s 3 -d 11 -p cbr -e 1000 -c 1 -i 16 -a 1 -x {9.0 0.8 0 ------- null}
d -t 0.130004 -s 2 -d 11 -p cbr -e 1000 -c 1 -i 16 -a 1 -x {9.0 0.8 0 ------- null}
d -t 0.130004 -s 1 -d 11 -p cbr -e 1000 -c 1 -i 16 -a 1 -x {9.0 0.8 0 ------- null}
d -t 0.130004 -s 0 -d 11 -p cbr -e 1000 -c 1 -i 16 -a 1 -x {9.0 0.8 0 ------- null}
d -t 0.130004 -s 9 -d 11 -p cbr -e 1000 -c 2 -i 18 -a 2 -x {10.0 0.9 0 ------- null}
d -t 0.130004 -s 8 -d 11 -p cbr -e 1000 -c 2 -i 18 -a 2 -x {10.0 0.9 0 ------- null}
d -t 0.130004 -s 7 -d 11 -p cbr -e 1000 -c 2 -i 18 -a 2 -x {10.0 0.9 0 ------- null}
d -t 0.130004 -s 6 -d 11 -p cbr -e 1000 -c 2 -i 18 -a 2 -x {10.0 0.9 0 ------- null}
d -t 0.130004 -s 5 -d 11 -p cbr -e 1000 -c 2 -i 18 -a 2 -x {10.0 0.9 0 ------- null}
d -t 0.130004 -s 4 -d 11 -p cbr -e 1000 -c 2 -i 18 -a 2 -x {10.0 0.9 0 ------- null}
d -t 0.130004 -s 3 -d 11 -p cbr -e 1000 -c 2 -i 18 -a 2 -x {10.0 0.9 0 ------- null}
d -t 0.130004 -s 2 -d 11 -p cbr -e 1000 -c 2 -i 18 -a 2 -x {10.0 0.9 0 ------- null}
d -t 0.130004 -s 1 -d 11 -p cbr -e 1000 -c 2 -i 18 -a 2 -x {10.0 0.9 0 ------- null}
d -t 0.130004 -s 0 -d 11 -p cbr -e 1000 -c 2 -i 18 -a 2 -x {10.0 0.9 0 ------- null}
+ -t 0.18192 -s 1 -d 0 -p cbr -e 1000 -c 2 -i 20 -a 2 -x {1.0 0.0 2 ------- null}
- -t 0.18192 -s 1 -d 0 -p cbr -e 1000 -c 2 -i 20 -a 2 -x {1.0 0.0 2 ------- null}
h -t 0.18192 -s 1 -d 0 -p cbr -e 1000 -c 2 -i 20 -a 2 -x {1.0 0.0 -1 ------- null}
+ -t 0.18192 -s 1 -d 0 -p cbr -e 24 -c 2 -i 21 -a 2 -x {1.0 0.0 3 ------- null}
h -t 0.18192 -s 2 -d 11 -p cbr -e 1000 -c 3 -i 22 -a 3 -x {2.0 0.1 2 ------- null}
h -t 0.18192 -s 2 -d 11 -p cbr -e 24 -c 3 -i 23 -a 3 -x {2.0 0.1 3 ------- null}
h -t 0.18192 -s 3 -d 11 -p cbr -e 1000 -c 1 -i 24 -a 1 -x {3.0 0.2 2 ------- null}
h -t 0.18192 -s 3 -d 11 -p cbr -e 24 -c 1 -i 25 -a 1 -x {3.0 0.2 3 ------- null}
h -t 0.18192 -s 4 -d 11 -p cbr -e 1000 -c 2 -i 26 -a 2 -x {4.0 0.3 2 ------- null}
h -t 0.18192 -s 4 -d 11 -p cbr -e 24 -c 2 -i 27 -a 2 -x {4.0 0.3 3 ------- null}
h -t 0.18192 -s 5 -d 11 -p cbr -e 1000 -c 3 -i 28 -a 3 -x {5.0 0.4 2 ------- null}
h -t 0.18192 -s 5 -d 11 -p cbr -e 24 -c 3 -i 29 -a 3 -x {5.0 0.4 3 ------- null}
h -t 0.18192 -s 6 -d 11 -p cbr -e 1000 -c 1 -i 30 -a 1 -x {6.0 0.5 2 ------- null}
h -t 0.18192 -s 6 -d 11 -p cbr -e 24 -c 1 -i 31 -a 1 -x {6.0 0.5 3 ------- null}
h -t 0.18192 -s 7 -d 11 -p cbr -e 1000 -c 2 -i 32 -a 2 -x {7.0 0.6 2 ------- null}
h -t 0.18192 -s 7 -d 11 -p cbr -e 24 -c 2 -i 33 -a 2 -x {7.0 0.6 3 ------- null}
h -t 0.18192 -s 8 -d 11 -p cbr -e 1000 -c 3 -i 34 -a 3 -x {8.0 0.7 2 ------- null}
h -t 0.18192 -s 8 -d 11 -p cbr -e 24 -c 3 -i 35 -a 3 -x {8.0 0.7 3 ------- null}
h -t 0.18192 -s 9 -d 11 -p cbr -e 1000 -c 1 -i 36 -a 1 -x {9.0 0.8 2 ------- null}
h -t 0.18192 -s 9 -d 11 -p cbr -e 24 -c 1 -i 37 -a 1 -x {9.0 0.8 3 ------- null}
h -t 0.18192 -s 10 -d 11 -p cbr -e 1000 -c 2 -i 38 -a 2 -x {10.0 0.9 2 ------- null}
h -t 0.18192 -s 10 -d 11 -p cbr -e 24 -c 2 -i 39 -a 2 -x {10.0 0.9 3 ------- null}
r -t 0.18992 -s 1 -d 0 -p cbr -e 1000 -c 2 -i 20 -a 2 -x {1.0 0.0 2 ------- null}
- -t 0.18992 -s 1 -d 0 -p cbr -e 24 -c 2 -i 21 -a 2 -x {1.0 0.0 3 ------- null}
h -t 0.18992 -s 1 -d 0 -p cbr -e 24 -c 2 -i 21 -a 2 -x {1.0 0.0 -1 ------- null}
r -t 0.190112 -s 1 -d 0 -p cbr -e 24 -c 2 -i 21 -a 2 -x {1.0 0.0 3 ------- null}
+ -t 0.21192 -s 2 -d 11 -p cbr -e 1000 -c 3 -i 22 -a 3 -x {2.0 0.1 2 ------- null}
+ -t 0.21192 -s 2 -d 11 -p cbr -e 24 -c 3 -i 23 -a 3 -x {2.0 0.1 3 ------- null}
+ -t 0.21192 -s 3 -d 11 -p cbr -e 1000 -c 1 -i 24 -a 1 -x {3.0 0.2 2 ------- null}
+ -t 0.21192 -s 3 -d 11 -p cbr -e 24 -c 1 -i 25 -a 1 -x {3.0 0.2 3 ------- null}
+ -t 0.21192 -s 4 -d 11 -p cbr -e 1000 -c 2 -i 26 -a 2 -x {4.0 0.3 2 ------- null}
+ -t 0.21192 -s 4 -d 11 -p cbr -e 24 -c 2 -i 27 -a 2 -x {4.0 0.3 3 ------- null}
+ -t 0.21192 -s 5 -d 11 -p cbr -e 1000 -c 3 -i 28 -a 3 -x {5.0 0.4 2 ------- null}
+ -t 0.21192 -s 5 -d 11 -p cbr -e 24 -c 3 -i 29 -a 3 -x {5.0 0.4 3 ------- null}
+ -t 0.21192 -s 6 -d 11 -p cbr -e 1000 -c 1 -i 30 -a 1 -x {6.0 0.5 2 ------- null}
+ -t 0.21192 -s 6 -d 11 -p cbr -e 24 -c 1 -i 31 -a 1 -x {6.0 0.5 3 ------- null}
+ -t 0.21192 -s 7 -d 11 -p cbr -e 1000 -c 2 -i 32 -a 2 -x {7.0 0.6 2 ------- null}
+ -t 0.21192 -s 7 -d 11 -p cbr -e 24 -c 2 -i 33 -a 2 -x {7.0 0.6 3 ------- null}
+ -t 0.21192 -s 8 -d 11 -p cbr -e 1000 -c 3 -i 34 -a 3 -x {8.0 0.7 2 ------- null}
+ -t 0.21192 -s 8 -d 11 -p cbr -e 24 -c 3 -i 35 -a 3 -x {8.0 0.7 3 ------- null}
+ -t 0.21192 -s 9 -d 11 -p cbr -e 1000 -c 1 -i 36 -a 1 -x {9.0 0.8 2 ------- null}
+ -t 0.21192 -s 9 -d 11 -p cbr -e 24 -c 1 -i 37 -a 1 -x {9.0 0.8 3 ------- null}
+ -t 0.21192 -s 10 -d 11 -p cbr -e 1000 -c 2 -i 38 -a 2 -x {10.0 0.9 2 ------- null}
+ -t 0.21192 -s 10 -d 11 -p cbr -e 24 -c 2 -i 39 -a 2 -x {10.0 0.9 3 ------- null}
+ -t 0.26384 -s 1 -d 0 -p cbr -e 1000 -c 2 -i 40 -a 2 -x {1.0 0.0 4 ------- null}
- -t 0.26384 -s 1 -d 0 -p cbr -e 1000 -c 2 -i 40 -a 2 -x {1.0 0.0 4 ------- null}
h -t 0.26384 -s 1 -d 0 -p cbr -e 1000 -c 2 -i 40 -a 2 -x {1.0 0.0 -1 ------- null}
+ -t 0.26384 -s 1 -d 0 -p cbr -e 24 -c 2 -i 41 -a 2 -x {1.0 0.0 5 ------- null}
h -t 0.26384 -s 2 -d 11 -p cbr -e 1000 -c 3 -i 42 -a 3 -x {2.0 0.1 4 ------- null}
h -t 0.26384 -s 2 -d 11 -p cbr -e 24 -c 3 -i 43 -a 3 -x {2.0 0.1 5 ------- null}
h -t 0.26384 -s 3 -d 11 -p cbr -e 1000 -c 1 -i 44 -a 1 -x {3.0 0.2 4 ------- null}
h -t 0.26384 -s 3 -d 11 -p cbr -e 24 -c 1 -i 45 -a 1 -x {3.0 0.2 5 ------- null}
h -t 0.26384 -s 4 -d 11 -p cbr -e 1000 -c 2 -i 46 -a 2 -x {4.0 0.3 4 ------- null}
h -t 0.26384 -s 4 -d 11 -p cbr -e 24 -c 2 -i 47 -a 2 -x {4.0 0.3 5 ------- null}
h -t 0.26384 -s 5 -d 11 -p cbr -e 1000 -c 3 -i 48 -a 3 -x {5.0 0.4 4 ------- null}
h -t 0.26384 -s 5 -d 11 -p cbr -e 24 -c 3 -i 49 -a 3 -x {5.0 0.4 5 ------- null}
h -t 0.26384 -s 6 -d 11 -p cbr -e 1000 -c 1 -i 50 -a 1 -x {6.0 0.5 4 ------- null}
h -t 0.26384 -s 6 -d 11 -p cbr -e 24 -c 1 -i 51 -a 1 -x {6.0 0.5 5 ------- null}
h -t 0.26384 -s 7 -d 11 -p cbr -e 1000 -c 2 -i 52 -a 2 -x {7.0 0.6 4 ------- null}
h -t 0.26384 -s 7 -d 11 -p cbr -e 24 -c 2 -i 53 -a 2 -x {7.0 0.6 5 ------- null}
h -t 0.26384 -s 8 -d 11 -p cbr -e 1000 -c 3 -i 54 -a 3 -x {8.0 0.7 4 ------- null}
h -t 0.26384 -s 8 -d 11 -p cbr -e 24 -c 3 -i 55 -a 3 -x {8.0 0.7 5 ------- null}
h -t 0.26384 -s 9 -d 11 -p cbr -e 1000 -c 1 -i 56 -a 1 -x {9.0 0.8 4 ------- null}
h -t 0.26384 -s 9 -d 11 -p cbr -e 24 -c 1 -i 57 -a 1 -x {9.0 0.8 5 ------- null}
h -t 0.26384 -s 10 -d 11 -p cbr -e 1000 -c 2 -i 58 -a 2 -x {10.0 0.9 4 ------- null}
h -t 0.26384 -s 10 -d 11 -p cbr -e 24 -c 2 -i 59 -a 2 -x {10.0 0.9 5 ------- null}
r -t 0.27184 -s 1 -d 0 -p cbr -e 1000 -c 2 -i 40 -a 2 -x {1.0 0.0 4 ------- null}
- -t 0.27184 -s 1 -d 0 -p cbr -e 24 -c 2 -i 41 -a 2 -x {1.0 0.0 5 ------- null}
h -t 0.27184 -s 1 -d 0 -p cbr -e 24 -c 2 -i 41 -a 2 -x {1.0 0.0 -1 ------- null}
r -t 0.272032 -s 1 -d 0 -p cbr -e 24 -c 2 -i 41 -a 2 -x {1.0 0.0 5 ------- null}
+ -t 0.29384 -s 2 -d 11 -p cbr -e 1000 -c 3 -i 42 -a 3 -x {2.0 0.1 4 ------- null}
+ -t 0.29384 -s 2 -d 11 -p cbr -e 24 -c 3 -i 43 -a 3 -x {2.0 0.1 5 ------- null}
+ -t 0.29384 -s 3 -d 11 -p cbr -e 1000 -c 1 -i 44 -a 1 -x {3.0 0.2 4 ------- null}
+ -t 0.29384 -s 3 -d 11 -p cbr -e 24 -c 1 -i 45 -a 1 -x {3.0 0.2 5 ------- null}
+ -t 0.29384 -s 4 -d 11 -p cbr -e 1000 -c 2 -i 46 -a 2 -x {4.0 0.3 4 ------- null}
+ -t 0.29384 -s 4 -d 11 -p cbr -e 24 -c 2 -i 47 -a 2 -x {4.0 0.3 5 ------- null}
+ -t 0.29384 -s 5 -d 11 -p cbr -e 1000 -c 3 -i 48 -a 3 -x {5.0 0.4 4 ------- null}
+ -t 0.29384 -s 5 -d 11 -p cbr -e 24 -c 3 -i 49 -a 3 -x {5.0 0.4 5 ------- null}
+ -t 0.29384 -s 6 -d 11 -p cbr -e 1000 -c 1 -i 50 -a 1 -x {6.0 0.5 4 ------- null}
+ -t 0.29384 -s 6 -d 11 -p cbr -e 24 -c 1 -i 51 -a 1 -x {6.0 0.5 5 ------- null}
+ -t 0.29384 -s 7 -d 11 -p cbr -e 1000 -c 2 -i 52 -a 2 -x {7.0 0.6 4 ------- null}
+ -t 0.29384 -s 7 -d 11 -p cbr -e 24 -c 2 -i 53 -a 2 -x {7.0 0.6 5 ------- null}
+ -t 0.29384 -s 8 -d 11 -p cbr -e 1000 -c 3 -i 54 -a 3 -x {8.0 0.7 4 ------- null}
+ -t 0.29384 -s 8 -d 11 -p cbr -e 24 -c 3 -i 55 -a 3 -x {8.0 0.7 5 ------- null}
+ -t 0.29384 -s 9 -d 11 -p cbr -e 1000 -c 1 -i 56 -a 1 -x {9.0 0.8 4 ------- null}
+ -t 0.29384 -s 9 -d 11 -p cbr -e 24 -c 1 -i 57 -a 1 -x {9.0 0.8 5 ------- null}
+ -t 0.29384 -s 10 -d 11 -p cbr -e 1000 -c 2 -i 58 -a 2 -x {10.0 0.9 4 ------- null}
+ -t 0.29384 -s 10 -d 11 -p cbr -e 24 -c 2 -i 59 -a 2 -x {10.0 0.9 5 ------- null}
+ -t 0.34576 -s 1 -d 0 -p cbr -e 1000 -c 2 -i 60 -a 2 -x {1.0 0.0 6 ------- null}
- -t 0.34576 -s 1 -d 0 -p cbr -e 1000 -c 2 -i 60 -a 2 -x {1.0 0.0 6 ------- null}
h -t 0.34576 -s 1 -d 0 -p cbr -e 1000 -c 2 -i 60 -a 2 -x {1.0 0.0 -1 ------- null}
+ -t 0.34576 -s 1 -d 0 -p cbr -e 24 -c 2 -i 61 -a 2 -x {1.0 0.0 7 ------- null}
h -t 0.34576 -s 2 -d 11 -p cbr -e 1000 -c 3 -i 62 -a 3 -x {2.0 0.1 6 ------- null}
h -t 0.34576 -s 2 -d 11 -p cbr -e 24 -c 3 -i 63 -a 3 -x {2.0 0.1 7 ------- null}
h -t 0.34576 -s 3 -d 11 -p cbr -e 1000 -c 1 -i 64 -a 1 -x {3.0 0.2 6 ------- null}
h -t 0.34576 -s 3 -d 11 -p cbr -e 24 -c 1 -i 65 -a 1 -x {3.0 0.2 7 ------- null}
h -t 0.34576 -s 4 -d 11 -p cbr -e 1000 -c 2 -i 66 -a 2 -x {4.0 0.3 6 ------- null}
h -t 0.34576 -s 4 -d 11 -p cbr -e 24 -c 2 -i 67 -a 2 -x {4.0 0.3 7 ------- null}
h -t 0.34576 -s 5 -d 11 -p cbr -e 1000 -c 3 -i 68 -a 3 -x {5.0 0.4 6 ------- null}
h -t 0.34576 -s 5 -d 11 -p cbr -e 24 -c 3 -i 69 -a 3 -x {5.0 0.4 7 ------- null}
h -t 0.34576 -s 6 -d 11 -p cbr -e 1000 -c 1 -i 70 -a 1 -x {6.0 0.5 6 ------- null}
h -t 0.34576 -s 6 -d 11 -p cbr -e 24 -c 1 -i 71 -a 1 -x {6.0 0.5 7 ------- null}
h -t 0.34576 -s 7 -d 11 -p cbr -e 1000 -c 2 -i 72 -a 2 -x {7.0 0.6 6 ------- null}
h -t 0.34576 -s 7 -d 11 -p cbr -e 24 -c 2 -i 73 -a 2 -x {7.0 0.6 7 ------- null}
h -t 0.34576 -s 8 -d 11 -p cbr -e 1000 -c 3 -i 74 -a 3 -x {8.0 0.7 6 ------- null}
h -t 0.34576 -s 8 -d 11 -p cbr -e 24 -c 3 -i 75 -a 3 -x {8.0 0.7 7 ------- null}
h -t 0.34576 -s 9 -d 11 -p cbr -e 1000 -c 1 -i 76 -a 1 -x {9.0 0.8 6 ------- null}
h -t 0.34576 -s 9 -d 11 -p cbr -e 24 -c 1 -i 77 -a 1 -x {9.0 0.8 7 ------- null}
h -t 0.34576 -s 10 -d 11 -p cbr -e 1000 -c 2 -i 78 -a 2 -x {10.0 0.9 6 ------- null}
h -t 0.34576 -s 10 -d 11 -p cbr -e 24 -c 2 -i 79 -a 2 -x {10.0 0.9 7 ------- null}
r -t 0.35376 -s 1 -d 0 -p cbr -e 1000 -c 2 -i 60 -a 2 -x {1.0 0.0 6 ------- null}
- -t 0.35376 -s 1 -d 0 -p cbr -e 24 -c 2 -i 61 -a 2 -x {1.0 0.0 7 ------- null}
h -t 0.35376 -s 1 -d 0 -p cbr -e 24 -c 2 -i 61 -a 2 -x {1.0 0.0 -1 ------- null}
r -t 0.353952 -s 1 -d 0 -p cbr -e 24 -c 2 -i 61 -a 2 -x {1.0 0.0 7 ------- null}
+ -t 0.37576 -s 2 -d 11 -p cbr -e 1000 -c 3 -i 62 -a 3 -x {2.0 0.1 6 ------- null}
+ -t 0.37576 -s 2 -d 11 -p cbr -e 24 -c 3 -i 63 -a 3 -x {2.0 0.1 7 ------- null}
+ -t 0.37576 -s 3 -d 11 -p cbr -e 1000 -c 1 -i 64 -a 1 -x {3.0 0.2 6 ------- null}
+ -t 0.37576 -s 3 -d 11 -p cbr -e 24 -c 1 -i 65 -a 1 -x {3.0 0.2 7 ------- null}
+ -t 0.37576 -s 4 -d 11 -p cbr -e 1000 -c 2 -i 66 -a 2 -x {4.0 0.3 6 ------- null}
+ -t 0.37576 -s 4 -d 11 -p cbr -e 24 -c 2 -i 67 -a 2 -x {4.0 0.3 7 ------- null}
+ -t 0.37576 -s 5 -d 11 -p cbr -e 1000 -c 3 -i 68 -a 3 -x {5.0 0.4 6 ------- null}
+ -t 0.37576 -s 5 -d 11 -p cbr -e 24 -c 3 -i 69 -a 3 -x {5.0 0.4 7 ------- null}
+ -t 0.37576 -s 6 -d 11 -p cbr -e 1000 -c 1 -i 70 -a 1 -x {6.0 0.5 6 ------- null}
+ -t 0.37576 -s 6 -d 11 -p cbr -e 24 -c 1 -i 71 -a 1 -x {6.0 0.5 7 ------- null}
+ -t 0.37576 -s 7 -d 11 -p cbr -e 1000 -c 2 -i 72 -a 2 -x {7.0 0.6 6 ------- null}
+ -t 0.37576 -s 7 -d 11 -p cbr -e 24 -c 2 -i 73 -a 2 -x {7.0 0.6 7 ------- null}
+ -t 0.37576 -s 8 -d 11 -p cbr -e 1000 -c 3 -i 74 -a 3 -x {8.0 0.7 6 ------- null}
+ -t 0.37576 -s 8 -d 11 -p cbr -e 24 -c 3 -i 75 -a 3 -x {8.0 0.7 7 ------- null}
+ -t 0.37576 -s 9 -d 11 -p cbr -e 1000 -c 1 -i 76 -a 1 -x {9.0 0.8 6 ------- null}
+ -t 0.37576 -s 9 -d 11 -p cbr -e 24 -c 1 -i 77 -a 1 -x {9.0 0.8 7 ------- null}
+ -t 0.37576 -s 10 -d 11 -p cbr -e 1000 -c 2 -i 78 -a 2 -x {10.0 0.9 6 ------- null}
+ -t 0.37576 -s 10 -d 11 -p cbr -e 24 -c 2 -i 79 -a 2 -x {10.0 0.9 7 ------- null}
+ -t 0.42768 -s 1 -d 0 -p cbr -e 1000 -c 2 -i 80 -a 2 -x {1.0 0.0 8 ------- null}
- -t 0.42768 -s 1 -d 0 -p cbr -e 1000 -c 2 -i 80 -a 2 -x {1.0 0.0 8 ------- null}
h -t 0.42768 -s 1 -d 0 -p cbr -e 1000 -c 2 -i 80 -a 2 -x {1.0 0.0 -1 ------- null}
+ -t 0.42768 -s 1 -d 0 -p cbr -e 24 -c 2 -i 81 -a 2 -x {1.0 0.0 9 ------- null}
h -t 0.42768 -s 2 -d 11 -p cbr -e 1000 -c 3 -i 82 -a 3 -x {2.0 0.1 8 ------- null}
h -t 0.42768 -s 2 -d 11 -p cbr -e 24 -c 3 -i 83 -a 3 -x {2.0 0.1 9 ------- null}
h -t 0.42768 -s 3 -d 11 -p cbr -e 1000 -c 1 -i 84 -a 1 -x {3.0 0.2 8 ------- null}
h -t 0.42768 -s 3 -d 11 -p cbr -e 24 -c 1 -i 85 -a 1 -x {3.0 0.2 9 ------- null}
h -t 0.42768 -s 4 -d 11 -p cbr -e 1000 -c 2 -i 86 -a 2 -x {4.0 0.3 8 ------- null}
h -t 0.42768 -s 4 -d 11 -p cbr -e 24 -c 2 -i 87 -a 2 -x {4.0 0.3 9 ------- null}
h -t 0.42768 -s 5 -d 11 -p cbr -e 1000 -c 3 -i 88 -a 3 -x {5.0 0.4 8 ------- null}
h -t 0.42768 -s 5 -d 11 -p cbr -e 24 -c 3 -i 89 -a 3 -x {5.0 0.4 9 ------- null}
h -t 0.42768 -s 6 -d 11 -p cbr -e 1000 -c 1 -i 90 -a 1 -x {6.0 0.5 8 ------- null}
h -t 0.42768 -s 6 -d 11 -p cbr -e 24 -c 1 -i 91 -a 1 -x {6.0 0.5 9 ------- null}
h -t 0.42768 -s 7 -d 11 -p cbr -e 1000 -c 2 -i 92 -a 2 -x {7.0 0.6 8 ------- null}
h -t 0.42768 -s 7 -d 11 -p cbr -e 24 -c 2 -i 93 -a 2 -x {7.0 0.6 9 ------- null}
h -t 0.42768 -s 8 -d 11 -p cbr -e 1000 -c 3 -i 94 -a 3 -x {8.0 0.7 8 ------- null}
h -t 0.42768 -s 8 -d 11 -p cbr -e 24 -c 3 -i 95 -a 3 -x {8.0 0.7 9 ------- null}
h -t 0.42768 -s 9 -d 11 -p cbr -e 1000 -c 1 -i 96 -a 1 -x {9.0 0.8 8 ------- null}
h -t 0.42768 -s 9 -d 11 -p cbr -e 24 -c 1 -i 97 -a 1 -x {9.0 0.8 9 ------- null}
h -t 0.42768 -s 10 -d 11 -p cbr -e 1000 -c 2 -i 98 -a 2 -x {10.0 0.9 8 ------- null}
h -t 0.42768 -s 10 -d 11 -p cbr -e 24 -c 2 -i 99 -a 2 -x {10.0 0.9 9 ------- null}
r -t 0.43568 -s 1 -d 0 -p cbr -e 1000 -c 2 -i 80 -a 2 -x {1.0 0.0 8 ------- null}
- -t 0.43568 -s 1 -d 0 -p cbr -e 24 -c 2 -i 81 -a 2 -x {1.0 0.0 9 ------- null}
h -t 0.43568 -s 1 -d 0 -p cbr -e 24 -c 2 -i 81 -a 2 -x {1.0 0.0 -1 ------- null}
r -t 0.435872 -s 1 -d 0 -p cbr -e 24 -c 2 -i 81 -a 2 -x {1.0 0.0 9 ------- null}
+ -t 0.45768 -s 2 -d 11 -p cbr -e 1000 -c 3 -i 82 -a 3 -x {2.0 0.1 8 ------- null}
+ -t 0.45768 -s 2 -d 11 -p cbr -e 24 -c 3 -i 83 -a 3 -x {2.0 0.1 9 ------- null}
+ -t 0.45768 -s 3 -d 11 -p cbr -e 1000 -c 1 -i 84 -a 1 -x {3.0 0.2 8 ------- null}
+ -t 0.45768 -s 3 -d 11 -p cbr -e 24 -c 1 -i 85 -a 1 -x {3.0 0.2 9 ------- null}
+ -t 0.45768 -s 4 -d 11 -p cbr -e 1000 -c 2 -i 86 -a 2 -x {4.0 0.3 8 ------- null}
+ -t 0.45768 -s 4 -d 11 -p cbr -e 24 -c 2 -i 87 -a 2 -x {4.0 0.3 9 ------- null}
+ -t 0.45768 -s 5 -d 11 -p cbr -e 1000 -c 3 -i 88 -a 3 -x {5.0 0.4 8 ------- null}
+ -t 0.45768 -s 5 -d 11 -p cbr -e 24 -c 3 -i 89 -a 3 -x {5.0 0.4 9 ------- null}
+ -t 0.45768 -s 6 -d 11 -p cbr -e 1000 -c 1 -i 90 -a 1 -x {6.0 0.5 8 ------- null}
+ -t 0.45768 -s 6 -d 11 -p cbr -e 24 -c 1 -i 91 -a 1 -x {6.0 0.5 9 ------- null}
+ -t 0.45768 -s 7 -d 11 -p cbr -e 1000 -c 2 -i 92 -a 2 -x {7.0 0.6 8 ------- null}
+ -t 0.45768 -s 7 -d 11 -p cbr -e 24 -c 2 -i 93 -a 2 -x {7.0 0.6 9 ------- null}
+ -t 0.45768 -s 8 -d 11 -p cbr -e 1000 -c 3 -i 94 -a 3 -x {8.0 0.7 8 ------- null}
+ -t 0.45768 -s 8 -d 11 -p cbr -e 24 -c 3 -i 95 -a 3 -x {8.0 0.7 9 ------- null}
+ -t 0.45768 -s 9 -d 11 -p cbr -e 1000 -c 1 -i 96 -a 1 -x {9.0 0.8 8 ------- null}
+ -t 0.45768 -s 9 -d 11 -p cbr -e 24 -c 1 -i 97 -a 1 -x {9.0 0.8 9 ------- null}
+ -t 0.45768 -s 10 -d 11 -p cbr -e 1000 -c 2 -i 98 -a 2 -x {10.0 0.9 8 ------- null}
+ -t 0.45768 -s 10 -d 11 -p cbr -e 24 -c 2 -i 99 -a 2 -x {10.0 0.9 9 ------- null}
+ -t 0.5096 -s 1 -d 0 -p cbr -e 1000 -c 2 -i 100 -a 2 -x {1.0 0.0 10 ------- null}
- -t 0.5096 -s 1 -d 0 -p cbr -e 1000 -c 2 -i 100 -a 2 -x {1.0 0.0 10 ------- null}
h -t 0.5096 -s 1 -d 0 -p cbr -e 1000 -c 2 -i 100 -a 2 -x {1.0 0.0 -1 ------- null}
+ -t 0.5096 -s 1 -d 0 -p cbr -e 24 -c 2 -i 101 -a 2 -x {1.0 0.0 11 ------- null}
h -t 0.5096 -s 2 -d 11 -p cbr -e 1000 -c 3 -i 102 -a 3 -x {2.0 0.1 10 ------- null}
h -t 0.5096 -s 2 -d 11 -p cbr -e 24 -c 3 -i 103 -a 3 -x {2.0 0.1 11 ------- null}
h -t 0.5096 -s 3 -d 11 -p cbr -e 1000 -c 1 -i 104 -a 1 -x {3.0 0.2 10 ------- null}
h -t 0.5096 -s 3 -d 11 -p cbr -e 24 -c 1 -i 105 -a 1 -x {3.0 0.2 11 ------- null}
h -t 0.5096 -s 4 -d 11 -p cbr -e 1000 -c 2 -i 106 -a 2 -x {4.0 0.3 10 ------- null}
h -t 0.5096 -s 4 -d 11 -p cbr -e 24 -c 2 -i 107 -a 2 -x {4.0 0.3 11 ------- null}
h -t 0.5096 -s 5 -d 11 -p cbr -e 1000 -c 3 -i 108 -a 3 -x {5.0 0.4 10 ------- null}
h -t 0.5096 -s 5 -d 11 -p cbr -e 24 -c 3 -i 109 -a 3 -x {5.0 0.4 11 ------- null}
h -t 0.5096 -s 6 -d 11 -p cbr -e 1000 -c 1 -i 110 -a 1 -x {6.0 0.5 10 ------- null}
h -t 0.5096 -s 6 -d 11 -p cbr -e 24 -c 1 -i 111 -a 1 -x {6.0 0.5 11 ------- null}
h -t 0.5096 -s 7 -d 11 -p cbr -e 1000 -c 2 -i 112 -a 2 -x {7.0 0.6 10 ------- null}
h -t 0.5096 -s 7 -d 11 -p cbr -e 24 -c 2 -i 113 -a 2 -x {7.0 0.6 11 ------- null}
h -t 0.5096 -s 8 -d 11 -p cbr -e 1000 -c 3 -i 114 -a 3 -x {8.0 0.7 10 ------- null}
h -t 0.5096 -s 8 -d 11 -p cbr -e 24 -c 3 -i 115 -a 3 -x {8.0 0.7 11 ------- null}
h -t 0.5096 -s 9 -d 11 -p cbr -e 1000 -c 1 -i 116 -a 1 -x {9.0 0.8 10 ------- null}