+ 0.1 1 0 cbr 1000 ------- 2 1.0 0.0 0 0
- 0.1 1 0 cbr 1000 ------- 2 1.0 0.0 0 0
+ 0.1 1 0 cbr 24 ------- 2 1.0 0.0 1 1
h 0.1 2 11 cbr 1000 ------- 3 2.0 0.1 0 2
h 0.1 2 11 cbr 24 ------- 3 2.0 0.1 1 3
h 0.1 3 11 cbr 1000 ------- 1 3.0 0.2 0 4
h 0.1 3 11 cbr 24 ------- 1 3.0 0.2 1 5
h 0.1 4 11 cbr 1000 ------- 2 4.0 0.3 0 6
h 0.1 4 11 cbr 24 ------- 2 4.0 0.3 1 7
h 0.1 5 11 cbr 1000 ------- 3 5.0 0.4 0 8
h 0.1 5 11 cbr 24 ------- 3 5.0 0.4 1 9
h 0.1 6 11 cbr 1000 ------- 1 6.0 0.5 0 10
h 0.1 6 11 cbr 24 ------- 1 6.0 0.5 1 11
h 0.1 7 11 cbr 1000 ------- 2 7.0 0.6 0 12
h 0.1 7 11 cbr 24 ------- 2 7.0 0.6 1 13
h 0.1 8 11 cbr 1000 ------- 3 8.0 0.7 0 14
h 0.1 8 11 cbr 24 ------- 3 8.0 0.7 1 15
h 0.1 9 11 cbr 1000 ------- 1 9.0 0.8 0 16
h 0.1 9 11 cbr 24 ------- 1 9.0 0.8 1 17
h 0.1 10 11 cbr 1000 ------- 2 10.0 0.9 0 18
h 0.1 10 11 cbr 24 ------- 2 10.0 0.9 1 19
r 0.108 1 0 cbr 1000 ------- 2 1.0 0.0 0 0
- 0.108 1 0 cbr 24 ------- 2 1.0 0.0 1 1
r 0.108192 1 0 cbr 24 ------- 2 1.0 0.0 1 1
+ 0.13 2 11 cbr 1000 ------- 3 2.0 0.1 0 2
- 0.13 2 11 cbr 1000 ------- 3 2.0 0.1 0 2
+ 0.13 2 11 cbr 24 ------- 3 2.0 0.1 1 3
+ 0.13 3 11 cbr 1000 ------- 1 3.0 0.2 0 4
- 0.13 3 11 cbr 1000 ------- 1 3.0 0.2 0 4
+ 0.13 3 11 cbr 24 ------- 1 3.0 0.2 1 5
+ 0.13 4 11 cbr 1000 ------- 2 4.0 0.3 0 6
- 0.13 4 11 cbr 1000 ------- 2 4.0 0.3 0 6
+ 0.13 4 11 cbr 24 ------- 2 4.0 0.3 1 7
+ 0.13 5 11 cbr 1000 ------- 3 5.0 0.4 0 8
- 0.13 5 11 cbr 1000 ------- 3 5.0 0.4 0 8
+ 0.13 5 11 cbr 24 ------- 3 5.0 0.4 1 9
+ 0.13 6 11 cbr 1000 ------- 1 6.0 0.5 0 10
- 0.13 6 11 cbr 1000 ------- 1 6.0 0.5 0 10
+ 0.13 6 11 cbr 24 ------- 1 6.0 0.5 1 11
+ 0.13 7 11 cbr 1000 ------- 2 7.0 0.6 0 12
- 0.13 7 11 cbr 1000 ------- 2 7.0 0.6 0 12
+ 0.13 7 11 cbr 24 ------- 2 7.0 0.6 1 13
+ 0.13 8 11 cbr 1000 ------- 3 8.0 0.7 0 14
- 0.13 8 11 cbr 1000 ------- 3 8.0 0.7 0 14
+ 0.13 8 11 cbr 24 ------- 3 8.0 0.7 1 15
+ 0.13 9 11 cbr 1000 ------- 1 9.0 0.8 0 16
- 0.13 9 11 cbr 1000 ------- 1 9.0 0.8 0 16
+ 0.13 9 11 cbr 24 ------- 1 9.0 0.8 1 17
+ 0.13 10 11 cbr 1000 ------- 2 10.0 0.9 0 18
- 0.13 10 11 cbr 1000 ------- 2 10.0 0.9 0 18
+ 0.13 10 11 cbr 24 ------- 2 10.0 0.9 1 19
d 0.130004 10 11 cbr 1000 ------- 3 2.0 0.1 0 2
d 0.130004 10 11 cbr 1000 ------- 1 3.0 0.2 0 4
d 0.130004 9 11 cbr 1000 ------- 3 2.0 0.1 0 2
d 0.130004 9 11 cbr 1000 ------- 1 3.0 0.2 0 4
d 0.130004 8 11 cbr 1000 ------- 3 2.0 0.1 0 2
d 0.130004 8 11 cbr 1000 ------- 1 3.0 0.2 0 4
d 0.130004 7 11 cbr 1000 ------- 3 2.0 0.1 0 2
d 0.130004 7 11 cbr 1000 ------- 1 3.0 0.2 0 4
d 0.130004 6 11 cbr 1000 ------- 3 2.0 0.1 0 2
d 0.130004 6 11 cbr 1000 ------- 1 3.0 0.2 0 4
d 0.130004 5 11 cbr 1000 ------- 3 2.0 0.1 0 2
d 0.130004 5 11 cbr 1000 ------- 1 3.0 0.2 0 4
d 0.130004 4 11 cbr 1000 ------- 3 2.0 0.1 0 2
d 0.130004 4 11 cbr 1000 ------- 1 3.0 0.2 0 4
d 0.130004 1 11 cbr 1000 ------- 3 2.0 0.1 0 2
d 0.130004 1 11 cbr 1000 ------- 1 3.0 0.2 0 4
c 0.1300 -2 -2 cbr 1000 ------- 3 2.0 0.1 0 2 -999.00 -999.00 -999.00 -999.00
d 0.130004 0 11 cbr 1000 ------- 3 2.0 0.1 0 2
c 0.1300 -2 -2 cbr 1000 ------- 1 3.0 0.2 0 4 -999.00 -999.00 -999.00 -999.00
d 0.130004 0 11 cbr 1000 ------- 1 3.0 0.2 0 4
d 0.130004 10 11 cbr 1000 ------- 2 4.0 0.3 0 6
d 0.130004 9 11 cbr 1000 ------- 2 4.0 0.3 0 6
d 0.130004 8 11 cbr 1000 ------- 2 4.0 0.3 0 6
d 0.130004 7 11 cbr 1000 ------- 2 4.0 0.3 0 6
d 0.130004 6 11 cbr 1000 ------- 2 4.0 0.3 0 6
d 0.130004 5 11 cbr 1000 ------- 2 4.0 0.3 0 6
d 0.130004 3 11 cbr 1000 ------- 3 2.0 0.1 0 2
d 0.130004 3 11 cbr 1000 ------- 2 4.0 0.3 0 6
d 0.130004 2 11 cbr 1000 ------- 1 3.0 0.2 0 4
d 0.130004 2 11 cbr 1000 ------- 2 4.0 0.3 0 6
d 0.130004 1 11 cbr 1000 ------- 2 4.0 0.3 0 6
c 0.1300 -2 -2 cbr 1000 ------- 2 4.0 0.3 0 6 -999.00 -999.00 -999.00 -999.00
d 0.130004 0 11 cbr 1000 ------- 2 4.0 0.3 0 6
d 0.130004 10 11 cbr 1000 ------- 3 5.0 0.4 0 8
d 0.130004 9 11 cbr 1000 ------- 3 5.0 0.4 0 8
d 0.130004 8 11 cbr 1000 ------- 3 5.0 0.4 0 8
d 0.130004 7 11 cbr 1000 ------- 3 5.0 0.4 0 8
d 0.130004 6 11 cbr 1000 ------- 3 5.0 0.4 0 8
d 0.130004 4 11 cbr 1000 ------- 3 5.0 0.4 0 8
d 0.130004 3 11 cbr 1000 ------- 3 5.0 0.4 0 8
d 0.130004 2 11 cbr 1000 ------- 3 5.0 0.4 0 8
d 0.130004 1 11 cbr 1000 ------- 3 5.0 0.4 0 8
c 0.1300 -2 -2 cbr 1000 ------- 3 5.0 0.4 0 8 -999.00 -999.00 -999.00 -999.00
d 0.130004 0 11 cbr 1000 ------- 3 5.0 0.4 0 8
d 0.130004 10 11 cbr 1000 ------- 1 6.0 0.5 0 10
d 0.130004 9 11 cbr 1000 ------- 1 6.0 0.5 0 10
d 0.130004 8 11 cbr 1000 ------- 1 6.0 0.5 0 10
d 0.130004 7 11 cbr 1000 ------- 1 6.0 0.5 0 10
d 0.130004 5 11 cbr 1000 ------- 1 6.0 0.5 0 10
d 0.130004 4 11 cbr 1000 ------- 1 6.0 0.5 0 10
d 0.130004 3 11 cbr 1000 ------- 1 6.0 0.5 0 10
d 0.130004 2 11 cbr 1000 ------- 1 6.0 0.5 0 10
d 0.130004 1 11 cbr 1000 ------- 1 6.0 0.5 0 10
c 0.1300 -2 -2 cbr 1000 ------- 1 6.0 0.5 0 10 -999.00 -999.00 -999.00 -999.00
d 0.130004 0 11 cbr 1000 ------- 1 6.0 0.5 0 10
d 0.130004 10 11 cbr 1000 ------- 2 7.0 0.6 0 12
d 0.130004 9 11 cbr 1000 ------- 2 7.0 0.6 0 12
d 0.130004 8 11 cbr 1000 ------- 2 7.0 0.6 0 12
d 0.130004 6 11 cbr 1000 ------- 2 7.0 0.6 0 12
d 0.130004 5 11 cbr 1000 ------- 2 7.0 0.6 0 12
d 0.130004 4 11 cbr 1000 ------- 2 7.0 0.6 0 12
d 0.130004 3 11 cbr 1000 ------- 2 7.0 0.6 0 12
d 0.130004 2 11 cbr 1000 ------- 2 7.0 0.6 0 12
d 0.130004 1 11 cbr 1000 ------- 2 7.0 0.6 0 12
c 0.1300 -2 -2 cbr 1000 ------- 2 7.0 0.6 0 12 -999.00 -999.00 -999.00 -999.00
d 0.130004 0 11 cbr 1000 ------- 2 7.0 0.6 0 12
d 0.130004 10 11 cbr 1000 ------- 3 8.0 0.7 0 14
d 0.130004 9 11 cbr 1000 ------- 3 8.0 0.7 0 14
d 0.130004 7 11 cbr 1000 ------- 3 8.0 0.7 0 14
d 0.130004 6 11 cbr 1000 ------- 3 8.0 0.7 0 14
d 0.130004 5 11 cbr 1000 ------- 3 8.0 0.7 0 14
d 0.130004 4 11 cbr 1000 ------- 3 8.0 0.7 0 14
d 0.130004 3 11 cbr 1000 ------- 3 8.0 0.7 0 14
d 0.130004 2 11 cbr 1000 ------- 3 8.0 0.7 0 14
d 0.130004 1 11 cbr 1000 ------- 3 8.0 0.7 0 14
c 0.1300 -2 -2 cbr 1000 ------- 3 8.0 0.7 0 14 -999.00 -999.00 -999.00 -999.00
d 0.130004 0 11 cbr 1000 ------- 3 8.0 0.7 0 14
d 0.130004 10 11 cbr 1000 ------- 1 9.0 0.8 0 16
d 0.130004 8 11 cbr 1000 ------- 1 9.0 0.8 0 16
d 0.130004 7 11 cbr 1000 ------- 1 9.0 0.8 0 16
d 0.130004 6 11 cbr 1000 ------- 1 9.0 0.8 0 16
d 0.130004 5 11 cbr 1000 ------- 1 9.0 0.8 0 16
d 0.130004 4 11 cbr 1000 ------- 1 9.0 0.8 0 16
d 0.130004 3 11 cbr 1000 ------- 1 9.0 0.8 0 16
d 0.130004 2 11 cbr 1000 ------- 1 9.0 0.8 0 16
d 0.130004 1 11 cbr 1000 ------- 1 9.0 0.8 0 16
c 0.1300 -2 -2 cbr 1000 ------- 1 9.0 0.8 0 16 -999.00 -999.00 -999.00 -999.00
d 0.130004 0 11 cbr 1000 ------- 1 9.0 0.8 0 16
d 0.130004 9 11 cbr 1000 ------- 2 10.0 0.9 0 18
d 0.130004 8 11 cbr 1000 ------- 2 10.0 0.9 0 18
d 0.130004 7 11 cbr 1000 ------- 2 10.0 0.9 0 18
d 0.130004 6 11 cbr 1000 ------- 2 10.0 0.9 0 18
d 0.130004 5 11 cbr 1000 ------- 2 10.0 0.9 0 18
d 0.130004 4 11 cbr 1000 ------- 2 10.0 0.9 0 18
d 0.130004 3 11 cbr 1000 ------- 2 10.0 0.9 0 18
d 0.130004 2 11 cbr 1000 ------- 2 10.0 0.9 0 18
d 0.130004 1 11 cbr 1000 ------- 2 10.0 0.9 0 18
c 0.1300 -2 -2 cbr 1000 ------- 2 10.0 0.9 0 18 -999.00 -999.00 -999.00 -999.00
d 0.130004 0 11 cbr 1000 ------- 2 10.0 0.9 0 18
+ 0.18192 1 0 cbr 1000 ------- 2 1.0 0.0 2 20
- 0.18192 1 0 cbr 1000 ------- 2 1.0 0.0 2 20
+ 0.18192 1 0 cbr 24 ------- 2 1.0 0.0 3 21
h 0.18192 2 11 cbr 1000 ------- 3 2.0 0.1 2 22
h 0.18192 2 11 cbr 24 ------- 3 2.0 0.1 3 23
h 0.18192 3 11 cbr 1000 ------- 1 3.0 0.2 2 24
h 0.18192 3 11 cbr 24 ------- 1 3.0 0.2 3 25
h 0.18192 4 11 cbr 1000 ------- 2 4.0 0.3 2 26
h 0.18192 4 11 cbr 24 ------- 2 4.0 0.3 3 27
h 0.18192 5 11 cbr 1000 ------- 3 5.0 0.4 2 28
h 0.18192 5 11 cbr 24 ------- 3 5.0 0.4 3 29
h 0.18192 6 11 cbr 1000 ------- 1 6.0 0.5 2 30
h 0.18192 6 11 cbr 24 ------- 1 6.0 0.5 3 31
h 0.18192 7 11 cbr 1000 ------- 2 7.0 0.6 2 32
h 0.18192 7 11 cbr 24 ------- 2 7.0 0.6 3 33
h 0.18192 8 11 cbr 1000 ------- 3 8.0 0.7 2 34
h 0.18192 8 11 cbr 24 ------- 3 8.0 0.7 3 35
h 0.18192 9 11 cbr 1000 ------- 1 9.0 0.8 2 36
h 0.18192 9 11 cbr 24 ------- 1 9.0 0.8 3 37
h 0.18192 10 11 cbr 1000 ------- 2 10.0 0.9 2 38
h 0.18192 10 11 cbr 24 ------- 2 10.0 0.9 3 39
r 0.18992 1 0 cbr 1000 ------- 2 1.0 0.0 2 20
- 0.18992 1 0 cbr 24 ------- 2 1.0 0.0 3 21
r 0.190112 1 0 cbr 24 ------- 2 1.0 0.0 3 21
+ 0.21192 2 11 cbr 1000 ------- 3 2.0 0.1 2 22
+ 0.21192 2 11 cbr 24 ------- 3 2.0 0.1 3 23
+ 0.21192 3 11 cbr 1000 ------- 1 3.0 0.2 2 24
+ 0.21192 3 11 cbr 24 ------- 1 3.0 0.2 3 25
+ 0.21192 4 11 cbr 1000 ------- 2 4.0 0.3 2 26
+ 0.21192 4 11 cbr 24 ------- 2 4.0 0.3 3 27
+ 0.21192 5 11 cbr 1000 ------- 3 5.0 0.4 2 28
+ 0.21192 5 11 cbr 24 ------- 3 5.0 0.4 3 29
+ 0.21192 6 11 cbr 1000 ------- 1 6.0 0.5 2 30
+ 0.21192 6 11 cbr 24 ------- 1 6.0 0.5 3 31
+ 0.21192 7 11 cbr 1000 ------- 2 7.0 0.6 2 32
+ 0.21192 7 11 cbr 24 ------- 2 7.0 0.6 3 33
+ 0.21192 8 11 cbr 1000 ------- 3 8.0 0.7 2 34
+ 0.21192 8 11 cbr 24 ------- 3 8.0 0.7 3 35
+ 0.21192 9 11 cbr 1000 ------- 1 9.0 0.8 2 36
+ 0.21192 9 11 cbr 24 ------- 1 9.0 0.8 3 37
+ 0.21192 10 11 cbr 1000 ------- 2 10.0 0.9 2 38
+ 0.21192 10 11 cbr 24 ------- 2 10.0 0.9 3 39
+ 0.26384 1 0 cbr 1000 ------- 2 1.0 0.0 4 40
- 0.26384 1 0 cbr 1000 ------- 2 1.0 0.0 4 40
+ 0.26384 1 0 cbr 24 ------- 2 1.0 0.0 5 41
h 0.26384 2 11 cbr 1000 ------- 3 2.0 0.1 4 42
h 0.26384 2 11 cbr 24 ------- 3 2.0 0.1 5 43
h 0.26384 3 11 cbr 1000 ------- 1 3.0 0.2 4 44
h 0.26384 3 11 cbr 24 ------- 1 3.0 0.2 5 45
h 0.26384 4 11 cbr 1000 ------- 2 4.0 0.3 4 46
h 0.26384 4 11 cbr 24 ------- 2 4.0 0.3 5 47
h 0.26384 5 11 cbr 1000 ------- 3 5.0 0.4 4 48
h 0.26384 5 11 cbr 24 ------- 3 5.0 0.4 5 49
h 0.26384 6 11 cbr 1000 ------- 1 6.0 0.5 4 50
h 0.26384 6 11 cbr 24 ------- 1 6.0 0.5 5 51
h 0.26384 7 11 cbr 1000 ------- 2 7.0 0.6 4 52
h 0.26384 7 11 cbr 24 ------- 2 7.0 0.6 5 53
h 0.26384 8 11 cbr 1000 ------- 3 8.0 0.7 4 54
h 0.26384 8 11 cbr 24 ------- 3 8.0 0.7 5 55
h 0.26384 9 11 cbr 1000 ------- 1 9.0 0.8 4 56
h 0.26384 9 11 cbr 24 ------- 1 9.0 0.8 5 57
h 0.26384 10 11 cbr 1000 ------- 2 10.0 0.9 4 58
h 0.26384 10 11 cbr 24 ------- 2 10.0 0.9 5 59
r 0.27184 1 0 cbr 1000 ------- 2 1.0 0.0 4 40
- 0.27184 1 0 cbr 24 ------- 2 1.0 0.0 5 41
r 0.272032 1 0 cbr 24 ------- 2 1.0 0.0 5 41
+ 0.29384 2 11 cbr 1000 ------- 3 2.0 0.1 4 42
+ 0.29384 2 11 cbr 24 ------- 3 2.0 0.1 5 43
+ 0.29384 3 11 cbr 1000 ------- 1 3.0 0.2 4 44
+ 0.29384 3 11 cbr 24 ------- 1 3.0 0.2 5 45
+ 0.29384 4 11 cbr 1000 ------- 2 4.0 0.3 4 46
+ 0.29384 4 11 cbr 24 ------- 2 4.0 0.3 5 47
+ 0.29384 5 11 cbr 1000 ------- 3 5.0 0.4 4 48
+ 0.29384 5 11 cbr 24 ------- 3 5.0 0.4 5 49
+ 0.29384 6 11 cbr 1000 ------- 1 6.0 0.5 4 50
+ 0.29384 6 11 cbr 24 ------- 1 6.0 0.5 5 51
+ 0.29384 7 11 cbr 1000 ------- 2 7.0 0.6 4 52
+ 0.29384 7 11 cbr 24 ------- 2 7.0 0.6 5 53
+ 0.29384 8 11 cbr 1000 ------- 3 8.0 0.7 4 54
+ 0.29384 8 11 cbr 24 ------- 3 8.0 0.7 5 55
+ 0.29384 9 11 cbr 1000 ------- 1 9.0 0.8 4 56
+ 0.29384 9 11 cbr 24 ------- 1 9.0 0.8 5 57
+ 0.29384 10 11 cbr 1000 ------- 2 10.0 0.9 4 58
+ 0.29384 10 11 cbr 24 ------- 2 10.0 0.9 5 59
+ 0.34576 1 0 cbr 1000 ------- 2 1.0 0.0 6 60
- 0.34576 1 0 cbr 1000 ------- 2 1.0 0.0 6 60
+ 0.34576 1 0 cbr 24 ------- 2 1.0 0.0 7 61
h 0.34576 2 11 cbr 1000 ------- 3 2.0 0.1 6 62
h 0.34576 2 11 cbr 24 ------- 3 2.0 0.1 7 63
h 0.34576 3 11 cbr 1000 ------- 1 3.0 0.2 6 64
h 0.34576 3 11 cbr 24 ------- 1 3.0 0.2 7 65
h 0.34576 4 11 cbr 1000 ------- 2 4.0 0.3 6 66
h 0.34576 4 11 cbr 24 ------- 2 4.0 0.3 7 67
h 0.34576 5 11 cbr 1000 ------- 3 5.0 0.4 6 68
h 0.34576 5 11 cbr 24 ------- 3 5.0 0.4 7 69
h 0.34576 6 11 cbr 1000 ------- 1 6.0 0.5 6 70
h 0.34576 6 11 cbr 24 ------- 1 6.0 0.5 7 71
h 0.34576 7 11 cbr 1000 ------- 2 7.0 0.6 6 72
h 0.34576 7 11 cbr 24 ------- 2 7.0 0.6 7 73
h 0.34576 8 11 cbr 1000 ------- 3 8.0 0.7 6 74
h 0.34576 8 11 cbr 24 ------- 3 8.0 0.7 7 75
h 0.34576 9 11 cbr 1000 ------- 1 9.0 0.8 6 76
h 0.34576 9 11 cbr 24 ------- 1 9.0 0.8 7 77
h 0.34576 10 11 cbr 1000 ------- 2 10.0 0.9 6 78
h 0.34576 10 11 cbr 24 ------- 2 10.0 0.9 7 79
r 0.35376 1 0 cbr 1000 ------- 2 1.0 0.0 6 60
- 0.35376 1 0 cbr 24 ------- 2 1.0 0.0 7 61
r 0.353952 1 0 cbr 24 ------- 2 1.0 0.0 7 61
+ 0.37576 2 11 cbr 1000 ------- 3 2.0 0.1 6 62
+ 0.37576 2 11 cbr 24 ------- 3 2.0 0.1 7 63
+ 0.37576 3 11 cbr 1000 ------- 1 3.0 0.2 6 64
+ 0.37576 3 11 cbr 24 ------- 1 3.0 0.2 7 65
+ 0.37576 4 11 cbr 1000 ------- 2 4.0 0.3 6 66
+ 0.37576 4 11 cbr 24 ------- 2 4.0 0.3 7 67
+ 0.37576 5 11 cbr 1000 ------- 3 5.0 0.4 6 68
+ 0.37576 5 11 cbr 24 ------- 3 5.0 0.4 7 69
+ 0.37576 6 11 cbr 1000 ------- 1 6.0 0.5 6 70
+ 0.37576 6 11 cbr 24 ------- 1 6.0 0.5 7 71
+ 0.37576 7 11 cbr 1000 ------- 2 7.0 0.6 6 72
+ 0.37576 7 11 cbr 24 ------- 2 7.0 0.6 7 73
+ 0.37576 8 11 cbr 1000 ------- 3 8.0 0.7 6 74
+ 0.37576 8 11 cbr 24 ------- 3 8.0 0.7 7 75
+ 0.37576 9 11 cbr 1000 ------- 1 9.0 0.8 6 76
+ 0.37576 9 11 cbr 24 ------- 1 9.0 0.8 7 77
+ 0.37576 10 11 cbr 1000 ------- 2 10.0 0.9 6 78
+ 0.37576 10 11 cbr 24 ------- 2 10.0 0.9 7 79
+ 0.42768 1 0 cbr 1000 ------- 2 1.0 0.0 8 80
- 0.42768 1 0 cbr 1000 ------- 2 1.0 0.0 8 80
+ 0.42768 1 0 cbr 24 ------- 2 1.0 0.0 9 81
h 0.42768 2 11 cbr 1000 ------- 3 2.0 0.1 8 82
h 0.42768 2 11 cbr 24 ------- 3 2.0 0.1 9 83
h 0.42768 3 11 cbr 1000 ------- 1 3.0 0.2 8 84
h 0.42768 3 11 cbr 24 ------- 1 3.0 0.2 9 85
h 0.42768 4 11 cbr 1000 ------- 2 4.0 0.3 8 86
h 0.42768 4 11 cbr 24 ------- 2 4.0 0.3 9 87
h 0.42768 5 11 cbr 1000 ------- 3 5.0 0.4 8 88
h 0.42768 5 11 cbr 24 ------- 3 5.0 0.4 9 89
h 0.42768 6 11 cbr 1000 ------- 1 6.0 0.5 8 90
h 0.42768 6 11 cbr 24 ------- 1 6.0 0.5 9 91
h 0.42768 7 11 cbr 1000 ------- 2 7.0 0.6 8 92
h 0.42768 7 11 cbr 24 ------- 2 7.0 0.6 9 93
h 0.42768 8 11 cbr 1000 ------- 3 8.0 0.7 8 94
h 0.42768 8 11 cbr 24 ------- 3 8.0 0.7 9 95
h 0.42768 9 11 cbr 1000 ------- 1 9.0 0.8 8 96
h 0.42768 9 11 cbr 24 ------- 1 9.0 0.8 9 97
h 0.42768 10 11 cbr 1000 ------- 2 10.0 0.9 8 98
h 0.42768 10 11 cbr 24 ------- 2 10.0 0.9 9 99
r 0.43568 1 0 cbr 1000 ------- 2 1.0 0.0 8 80
- 0.43568 1 0 cbr 24 ------- 2 1.0 0.0 9 81
r 0.435872 1 0 cbr 24 ------- 2 1.0 0.0 9 81
+ 0.45768 2 11 cbr 1000 ------- 3 2.0 0.1 8 82
+ 0.45768 2 11 cbr 24 ------- 3 2.0 0.1 9 83
+ 0.45768 3 11 cbr 1000 ------- 1 3.0 0.2 8 84
+ 0.45768 3 11 cbr 24 ------- 1 3.0 0.2 9 85
+ 0.45768 4 11 cbr 1000 ------- 2 4.0 0.3 8 86
+ 0.45768 4 11 cbr 24 ------- 2 4.0 0.3 9 87
+ 0.45768 5 11 cbr 1000 ------- 3 5.0 0.4 8 88
+ 0.45768 5 11 cbr 24 ------- 3 5.0 0.4 9 89
+ 0.45768 6 11 cbr 1000 ------- 1 6.0 0.5 8 90
+ 0.45768 6 11 cbr 24 ------- 1 6.0 0.5 9 91
+ 0.45768 7 11 cbr 1000 ------- 2 7.0 0.6 8 92
+ 0.45768 7 11 cbr 24 ------- 2 7.0 0.6 9 93
+ 0.45768 8 11 cbr 1000 ------- 3 8.0 0.7 8 94
+ 0.45768 8 11 cbr 24 ------- 3 8.0 0.7 9 95
+ 0.45768 9 11 cbr 1000 ------- 1 9.0 0.8 8 96
+ 0.45768 9 11 cbr 24 ------- 1 9.0 0.8 9 97
+ 0.45768 10 11 cbr 1000 ------- 2 10.0 0.9 8 98
+ 0.45768 10 11 cbr 24 ------- 2 10.0 0.9 9 99
+ 0.5096 1 0 cbr 1000 ------- 2 1.0 0.0 10 100
- 0.5096 1 0 cbr 1000 ------- 2 1.0 0.0 10 100
+ 0.5096 1 0 cbr 24 ------- 2 1.0 0.0 11 101
h 0.5096 2 11 cbr 1000 ------- 3 2.0 0.1 10 102
h 0.5096 2 11 cbr 24 ------- 3 2.0 0.1 11 103
h 0.5096 3 11 cbr 1000 ------- 1 3.0 0.2 10 104
h 0.5096 3 11 cbr 24 ------- 1 3.0 0.2 11 105
h 0.5096 4 11 cbr 1000 ------- 2 4.0 0.3 10 106
h 0.5096 4 11 cbr 24 ------- 2 4.0 0.3 11 107
h 0.5096 5 11 cbr 1000 ------- 3 5.0 0.4 10 108
h 0.5096 5 11 cbr 24 ------- 3 5.0 0.4 11 109
h 0.5096 6 11 cbr 1000 ------- 1 6.0 0.5 10 110
h 0.5096 6 11 cbr 24 ------- 1 6.0 0.5 11 111
h 0.5096 7 11 cbr 1000 ------- 2 7.0 0.6 10 112
h 0.5096 7 11 cbr 24 ------- 2 7.0 0.6 11 113
h 0.5096 8 11 cbr 1000 ------- 3 8.0 0.7 10 114
h 0.5096 8 11 cbr 24 ------- 3 8.0 0.7 11 115
h 0.5096 9 11 cbr 1000 ------- 1 9.0 0.8 10 116
h 0.5096 9 11 cbr 24 ------- 1 9.0 0.8 11 117
h 0.5096 10 11 cbr 1000 ------- 2 10.0 0.9 10 118
h 0.5096 10 11 cbr 24 ------- 2 10.0 0.9 11 119
r 0.5176 1 0 cbr 1000 ------- 2 1.0 0.0 10 100
- 0.5176 1 0 cbr 24 ------- 2 1.0 0.0 11 101
r 0.517792 1 0 cbr 24 ------- 2 1.0 0.0 11 101
+ 0.5396 2 11 cbr 1000 ------- 3 2.0 0.1 10 102
+ 0.5396 2 11 cbr 24 ------- 3 2.0 0.1 11 103
+ 0.5396 3 11 cbr 1000 ------- 1 3.0 0.2 10 104
+ 0.5396 3 11 cbr 24 ------- 1 3.0 0.2 11 105
+ 0.5396 4 11 cbr 1000 ------- 2 4.0 0.3 10 106
+ 0.5396 4 11 cbr 24 ------- 2 4.0 0.3 11 107
+ 0.5396 5 11 cbr 1000 ------- 3 5.0 0.4 10 108
+ 0.5396 5 11 cbr 24 ------- 3 5.0 0.4 11 109
+ 0.5396 6 11 cbr 1000 ------- 1 6.0 0.5 10 110
+ 0.5396 6 11 cbr 24 ------- 1 6.0 0.5 11 111
+ 0.5396 7 11 cbr 1000 ------- 2 7.0 0.6 10 112
+ 0.5396 7 11 cbr 24 ------- 2 7.0 0.6 11 113
+ 0.5396 8 11 cbr 1000 ------- 3 8.0 0.7 10 114
+ 0.5396 8 11 cbr 24 ------- 3 8.0 0.7 11 115
+ 0.5396 9 11 cbr 1000 ------- 1 9.0 0.8 10 116
+ 0.5396 9 11 cbr 24 ------- 1 9.0 0.8 11 117
+ 0.5396 10 11 cbr 1000 ------- 2 10.0 0.9 10 118
+ 0.5396 10 11 cbr 24 ------- 2 10.0 0.9 11 119
+ 0.59152 1 0 cbr 1000 ------- 2 1.0 0.0 12 120
- 0.59152 1 0 cbr 1000 ------- 2 1.0 0.0 12 120
+ 0.59152 1 0 cbr 24 ------- 2 1.0 0.0 13 121
h 0.59152 2 11 cbr 1000 ------- 3 2.0 0.1 12 122
h 0.59152 2 11 cbr 24 ------- 3 2.0 0.1 13 123
h 0.59152 3 11 cbr 1000 ------- 1 3.0 0.2 12 124
h 0.59152 3 11 cbr 24 ------- 1 3.0 0.2 13 125
h 0.59152 4 11 cbr 1000 ------- 2 4.0 0.3 12 126
h 0.59152 4 11 cbr 24 ------- 2 4.0 0.3 13 127
h 0.59152 5 11 cbr 1000 ------- 3 5.0 0.4 12 128
h 0.59152 5 11 cbr 24 ------- 3 5.0 0.4 13 129
h 0.59152 6 11 cbr 1000 ------- 1 6.0 0.5 12 130
h 0.59152 6 11 cbr 24 ------- 1 6.0 0.5 13 131
h 0.59152 7 11 cbr 1000 ------- 2 7.0 0.6 12 132
h 0.59152 7 11 cbr 24 ------- 2 7.0 0.6 13 133
h 0.59152 8 11 cbr 1000 ------- 3 8.0 0.7 12 134
h 0.59152 8 11 cbr 24 ------- 3 8.0 0.7 13 135
h 0.59152 9 11 cbr 1000 ------- 1 9.0 0.8 12 136
h 0.59152 9 11 cbr 24 ------- 1 9.0 0.8 13 137
h 0.59152 10 11 cbr 1000 ------- 2 10.0 0.9 12 138
h 0.59152 10 11 cbr 24 ------- 2 10.0 0.9 13 139
r 0.59952 1 0 cbr 1000 ------- 2 1.0 0.0 12 120
- 0.59952 1 0 cbr 24 ------- 2 1.0 0.0 13 121
r 0.599712 1 0 cbr 24 ------- 2 1.0 0.0 13 121
d 0.61089 10 11 cbr 1000 ------- 1 9.0 0.8 0 16
d 0.61089 8 11 cbr 1000 ------- 1 9.0 0.8 0 16
d 0.61089 7 11 cbr 1000 ------- 1 9.0 0.8 0 16
d 0.61089 6 11 cbr 1000 ------- 1 9.0 0.8 0 16
d 0.61089 5 11 cbr 1000 ------- 1 9.0 0.8 0 16
d 0.61089 4 11 cbr 1000 ------- 1 9.0 0.8 0 16
d 0.61089 3 11 cbr 1000 ------- 1 9.0 0.8 0 16
d 0.61089 2 11 cbr 1000 ------- 1 9.0 0.8 0 16
d 0.61089 1 11 cbr 1000 ------- 1 9.0 0.8 0 16
+ 0.62152 2 11 cbr 1000 ------- 3 2.0 0.1 12 122
+ 0.62152 2 11 cbr 24 ------- 3 2.0 0.1 13 123
+ 0.62152 3 11 cbr 1000 ------- 1 3.0 0.2 12 124
+ 0.62152 3 11 cbr 24 ------- 1 3.0 0.2 13 125
+ 0.62152 4 11 cbr 1000 ------- 2 4.0 0.3 12 126
+ 0.62152 4 11 cbr 24 ------- 2 4.0 0.3 13 127
+ 0.62152 5 11 cbr 1000 ------- 3 5.0 0.4 12 128
+ 0.62152 5 11 cbr 24 ------- 3 5.0 0.4 13 129
+ 0.62152 6 11 cbr 1000 ------- 1 6.0 0.5 12 130
+ 0.62152 6 11 cbr 24 ------- 1 6.0 0.5 13 131
+ 0.62152 7 11 cbr 1000 ------- 2 7.0 0.6 12 132
+ 0.62152 7 11 cbr 24 ------- 2 7.0 0.6 13 133
+ 0.62152 8 11 cbr 1000 ------- 3 8.0 0.7 12 134
+ 0.62152 8 11 cbr 24 ------- 3 8.0 0.7 13 135
+ 0.62152 9 11 cbr 1000 ------- 1 9.0 0.8 12 136
+ 0.62152 9 11 cbr 24 ------- 1 9.0 0.8 13 137
+ 0.62152 10 11 cbr 1000 ------- 2 10.0 0.9 12 138
+ 0.62152 10 11 cbr 24 ------- 2 10.0 0.9 13 139
d 0.632332 10 11 cbr 1000 ------- 2 7.0 0.6 0 12
d 0.632332 9 11 cbr 1000 ------- 2 7.0 0.6 0 12
d 0.632332 8 11 cbr 1000 ------- 2 7.0 0.6 0 12
d 0.632332 6 11 cbr 1000 ------- 2 7.0 0.6 0 12
d 0.632332 5 11 cbr 1000 ------- 2 7.0 0.6 0 12
d 0.632332 4 11 cbr 1000 ------- 2 7.0 0.6 0 12
d 0.632332 3 11 cbr 1000 ------- 2 7.0 0.6 0 12
d 0.632332 2 11 cbr 1000 ------- 2 7.0 0.6 0 12
d 0.632332 1 11 cbr 1000 ------- 2 7.0 0.6 0 12
r 0.64089 11 0 cbr 1000 ------- 1 9.0 0.8 0 16
r 0.662332 11 0 cbr 1000 ------- 2 7.0 0.6 0 12
+ 0.67344 1 0 cbr 1000 ------- 2 1.0 0.0 14 140
- 0.67344 1 0 cbr 1000 ------- 2 1.0 0.0 14 140
+ 0.67344 1 0 cbr 24 ------- 2 1.0 0.0 15 141
h 0.67344 2 11 cbr 1000 ------- 3 2.0 0.1 14 142
h 0.67344 2 11 cbr 24 ------- 3 2.0 0.1 15 143
h 0.67344 3 11 cbr 1000 ------- 1 3.0 0.2 14 144
h 0.67344 3 11 cbr 24 ------- 1 3.0 0.2 15 145
h 0.67344 4 11 cbr 1000 ------- 2 4.0 0.3 14 146
h 0.67344 4 11 cbr 24 ------- 2 4.0 0.3 15 147
h 0.67344 5 11 cbr 1000 ------- 3 5.0 0.4 14 148
h 0.67344 5 11 cbr 24 ------- 3 5.0 0.4 15 149
h 0.67344 6 11 cbr 1000 ------- 1 6.0 0.5 14 150
h 0.67344 6 11 cbr 24 ------- 1 6.0 0.5 15 151
h 0.67344 7 11 cbr 1000 ------- 2 7.0 0.6 14 152
h 0.67344 7 11 cbr 24 ------- 2 7.0 0.6 15 153
h 0.67344 8 11 cbr 1000 ------- 3 8.0 0.7 14 154
h 0.67344 8 11 cbr 24 ------- 3 8.0 0.7 15 155
h 0.67344 9 11 cbr 1000 ------- 1 9.0 0.8 14 156
h 0.67344 9 11 cbr 24 ------- 1 9.0 0.8 15 157
h 0.67344 10 11 cbr 1000 ------- 2 10.0 0.9 14 158
h 0.67344 10 11 cbr 24 ------- 2 10.0 0.9 15 159
r 0.68144 1 0 cbr 1000 ------- 2 1.0 0.0 14 140
- 0.68144 1 0 cbr 24 ------- 2 1.0 0.0 15 141
r 0.681632 1 0 cbr 24 ------- 2 1.0 0.0 15 141
+ 0.70344 2 11 cbr 1000 ------- 3 2.0 0.1 14 142
+ 0.70344 2 11 cbr 24 ------- 3 2.0 0.1 15 143
+ 0.70344 3 11 cbr 1000 ------- 1 3.0 0.2 14 144
+ 0.70344 3 11 cbr 24 ------- 1 3.0 0.2 15 145
+ 0.70344 4 11 cbr 1000 ------- 2 4.0 0.3 14 146
+ 0.70344 4 11 cbr 24 ------- 2 4.0 0.3 15 147
+ 0.70344 5 11 cbr 1000 ------- 3 5.0 0.4 14 148
+ 0.70344 5 11 cbr 24 ------- 3 5.0 0.4 15 149
+ 0.70344 6 11 cbr 1000 ------- 1 6.0 0.5 14 150
+ 0.70344 6 11 cbr 24 ------- 1 6.0 0.5 15 151
+ 0.70344 7 11 cbr 1000 ------- 2 7.0 0.6 14 152
+ 0.70344 7 11 cbr 24 ------- 2 7.0 0.6 15 153
+ 0.70344 8 11 cbr 1000 ------- 3 8.0 0.7 14 154
+ 0.70344 8 11 cbr 24 ------- 3 8.0 0.7 15 155
+ 0.70344 9 11 cbr 1000 ------- 1 9.0 0.8 14 156
+ 0.70344 9 11 cbr 24 ------- 1 9.0 0.8 15 157
+ 0.70344 10 11 cbr 1000 ------- 2 10.0 0.9 14 158
+ 0.70344 10 11 cbr 24 ------- 2 10.0 0.9 15 159
+ 0.75536 1 0 cbr 1000 ------- 2 1.0 0.0 16 160
- 0.75536 1 0 cbr 1000 ------- 2 1.0 0.0 16 160
+ 0.75536 1 0 cbr 24 ------- 2 1.0 0.0 17 161
h 0.75536 2 11 cbr 1000 ------- 3 2.0 0.1 16 162
h 0.75536 2 11 cbr 24 ------- 3 2.0 0.1 17 163
h 0.75536 3 11 cbr 1000 ------- 1 3.0 0.2 16 164
h 0.75536 3 11 cbr 24 ------- 1 3.0 0.2 17 165
h 0.75536 4 11 cbr 1000 ------- 2 4.0 0.3 16 166
h 0.75536 4 11 cbr 24 ------- 2 4.0 0.3 17 167
h 0.75536 5 11 cbr 1000 ------- 3 5.0 0.4 16 168
h 0.75536 5 11 cbr 24 ------- 3 5.0 0.4 17 169
h 0.75536 6 11 cbr 1000 ------- 1 6.0 0.5 16 170
h 0.75536 6 11 cbr 24 ------- 1 6.0 0.5 17 171
h 0.75536 7 11 cbr 1000 ------- 2 7.0 0.6 16 172
h 0.75536 7 11 cbr 24 ------- 2 7.0 0.6 17 173
h 0.75536 8 11 cbr 1000 ------- 3 8.0 0.7 16 174
h 0.75536 8 11 cbr 24 ------- 3 8.0 0.7 17 175
h 0.75536 9 11 cbr 1000 ------- 1 9.0 0.8 16 176
h 0.75536 9 11 cbr 24 ------- 1 9.0 0.8 17 177
h 0.75536 10 11 cbr 1000 ------- 2 10.0 0.9 16 178
h 0.75536 10 11 cbr 24 ------- 2 10.0 0.9 17 179
r 0.76336 1 0 cbr 1000 ------- 2 1.0 0.0 16 160
- 0.76336 1 0 cbr 24 ------- 2 1.0 0.0 17 161
r 0.763552 1 0 cbr 24 ------- 2 1.0 0.0 17 161
+ 0.78536 2 11 cbr 1000 ------- 3 2.0 0.1 16 162
+ 0.78536 2 11 cbr 24 ------- 3 2.0 0.1 17 163
+ 0.78536 3 11 cbr 1000 ------- 1 3.0 0.2 16 164
+ 0.78536 3 11 cbr 24 ------- 1 3.0 0.2 17 165
+ 0.78536 4 11 cbr 1000 ------- 2 4.0 0.3 16 166
+ 0.78536 4 11 cbr 24 ------- 2 4.0 0.3 17 167
+ 0.78536 5 11 cbr 1000 ------- 3 5.0 0.4 16 168
+ 0.78536 5 11 cbr 24 ------- 3 5.0 0.4 17 169
+ 0.78536 6 11 cbr 1000 ------- 1 6.0 0.5 16 170
+ 0.78536 6 11 cbr 24 ------- 1 6.0 0.5 17 171
+ 0.78536 7 11 cbr 1000 ------- 2 7.0 0.6 16 172
+ 0.78536 7 11 cbr 24 ------- 2 7.0 0.6 17 173
+ 0.78536 8 11 cbr 1000 ------- 3 8.0 0.7 16 174
+ 0.78536 8 11 cbr 24 ------- 3 8.0 0.7 17 175
+ 0.78536 9 11 cbr 1000 ------- 1 9.0 0.8 16 176
+ 0.78536 9 11 cbr 24 ------- 1 9.0 0.8 17 177
+ 0.78536 10 11 cbr 1000 ------- 2 10.0 0.9 16 178
+ 0.78536 10 11 cbr 24 ------- 2 10.0 0.9 17 179
+ 0.83728 1 0 cbr 1000 ------- 2 1.0 0.0 18 180
- 0.83728 1 0 cbr 1000 ------- 2 1.0 0.0 18 180
+ 0.83728 1 0 cbr 24 ------- 2 1.0 0.0 19 181
h 0.83728 2 11 cbr 1000 ------- 3 2.0 0.1 18 182
h 0.83728 2 11 cbr 24 ------- 3 2.0 0.1 19 183
h 0.83728 3 11 cbr 1000 ------- 1 3.0 0.2 18 184
h 0.83728 3 11 cbr 24 ------- 1 3.0 0.2 19 185
h 0.83728 4 11 cbr 1000 ------- 2 4.0 0.3 18 186
h 0.83728 4 11 cbr 24 ------- 2 4.0 0.3 19 187
h 0.83728 5 11 cbr 1000 ------- 3 5.0 0.4 18 188
h 0.83728 5 11 cbr 24 ------- 3 5.0 0.4 19 189
h 0.83728 6 11 cbr 1000 ------- 1 6.0 0.5 18 190
h 0.83728 6 11 cbr 24 ------- 1 6.0 0.5 19 191
h 0.83728 7 11 cbr 1000 ------- 2 7.0 0.6 18 192
h 0.83728 7 11 cbr 24 ------- 2 7.0 0.6 19 193
h 0.83728 8 11 cbr 1000 ------- 3 8.0 0.7 18 194
h 0.83728 8 11 cbr 24 ------- 3 8.0 0.7 19 195
h 0.83728 9 11 cbr 1000 ------- 1 9.0 0.8 18 196
h 0.83728 9 11 cbr 24 ------- 1 9.0 0.8 19 197
h 0.83728 10 11 cbr 1000 ------- 2 10.0 0.9 18 198
h 0.83728 10 11 cbr 24 ------- 2 10.0 0.9 19 199
r 0.84528 1 0 cbr 1000 ------- 2 1.0 0.0 18 180
- 0.84528 1 0 cbr 24 ------- 2 1.0 0.0 19 181
r 0.845472 1 0 cbr 24 ------- 2 1.0 0.0 19 181
+ 0.86728 2 11 cbr 1000 ------- 3 2.0 0.1 18 182
+ 0.86728 2 11 cbr 24 ------- 3 2.0 0.1 19 183
+ 0.86728 3 11 cbr 1000 ------- 1 3.0 0.2 18 184
+ 0.86728 3 11 cbr 24 ------- 1 3.0 0.2 19 185
+ 0.86728 4 11 cbr 1000 ------- 2 4.0 0.3 18 186
+ 0.86728 4 11 cbr 24 ------- 2 4.0 0.3 19 187
+ 0.86728 5 11 cbr 1000 ------- 3 5.0 0.4 18 188
+ 0.86728 5 11 cbr 24 ------- 3 5.0 0.4 19 189
+ 0.86728 6 11 cbr 1000 ------- 1 6.0 0.5 18 190
+ 0.86728 6 11 cbr 24 ------- 1 6.0 0.5 19 191
+ 0.86728 7 11 cbr 1000 ------- 2 7.0 0.6 18 192
+ 0.86728 7 11 cbr 24 ------- 2 7.0 0.6 19 193
+ 0.86728 8 11 cbr 1000 ------- 3 8.0 0.7 18 194
+ 0.86728 8 11 cbr 24 ------- 3 8.0 0.7 19 195
+ 0.86728 9 11 cbr 1000 ------- 1 9.0 0.8 18 196
+ 0.86728 9 11 cbr 24 ------- 1 9.0 0.8 19 197
+ 0.86728 10 11 cbr 1000 ------- 2 10.0 0.9 18 198
+ 0.86728 10 11 cbr 24 ------- 2 10.0 0.9 19 199
+ 0.9192 1 0 cbr 1000 ------- 2 1.0 0.0 20 200
- 0.9192 1 0 cbr 1000 ------- 2 1.0 0.0 20 200
+ 0.9192 1 0 cbr 24 ------- 2 1.0 0.0 21 201
h 0.9192 2 11 cbr 1000 ------- 3 2.0 0.1 20 202
h 0.9192 2 11 cbr 24 ------- 3 2.0 0.1 21 203
h 0.9192 3 11 cbr 1000 ------- 1 3.0 0.2 20 204
h 0.9192 3 11 cbr 24 ------- 1 3.0 0.2 21 205
h 0.9192 4 11 cbr 1000 ------- 2 4.0 0.3 20 206
h 0.9192 4 11 cbr 24 ------- 2 4.0 0.3 21 207
h 0.9192 5 11 cbr 1000 ------- 3 5.0 0.4 20 208
h 0.9192 5 11 cbr 24 ------- 3 5.0 0.4 21 209
h 0.9192 6 11 cbr 1000 ------- 1 6.0 0.5 20 210
h 0.9192 6 11 cbr 24 ------- 1 6.0 0.5 21 211
h 0.9192 7 11 cbr 1000 ------- 2 7.0 0.6 20 212
h 0.9192 7 11 cbr 24 ------- 2 7.0 0.6 21 213
h 0.9192 8 11 cbr 1000 ------- 3 8.0 0.7 20 214
h 0.9192 8 11 cbr 24 ------- 3 8.0 0.7 21 215
h 0.9192 9 11 cbr 1000 ------- 1 9.0 0.8 20 216
h 0.9192 9 11 cbr 24 ------- 1 9.0 0.8 21 217
h 0.9192 10 11 cbr 1000 ------- 2 10.0 0.9 20 218
h 0.9192 10 11 cbr 24 ------- 2 10.0 0.9 21 219
r 0.9272 1 0 cbr 1000 ------- 2 1.0 0.0 20 200
- 0.9272 1 0 cbr 24 ------- 2 1.0 0.0 21 201
r 0.927392 1 0 cbr 24 ------- 2 1.0 0.0 21 201
+ 0.9492 2 11 cbr 1000 ------- 3 2.0 0.1 20 202
+ 0.9492 2 11 cbr 24 ------- 3 2.0 0.1 21 203
+ 0.9492 3 11 cbr 1000 ------- 1 3.0 0.2 20 204
+ 0.9492 3 11 cbr 24 ------- 1 3.0 0.2 21 205
+ 0.9492 4 11 cbr 1000 ------- 2 4.0 0.3 20 206
+ 0.9492 4 11 cbr 24 ------- 2 4.0 0.3 21 207
+ 0.9492 5 11 cbr 1000 ------- 3 5.0 0.4 20 208
+ 0.9492 5 11 cbr 24 ------- 3 5.0 0.4 21 209
+ 0.9492 6 11 cbr 1000 ------- 1 6.0 0.5 20 210
+ 0.9492 6 11 cbr 24 ------- 1 6.0 0.5 21 211
+ 0.9492 7 11 cbr 1000 ------- 2 7.0 0.6 20 212
+ 0.9492 7 11 cbr 24 ------- 2 7.0 0.6 21 213
+ 0.9492 8 11 cbr 1000 ------- 3 8.0 0.7 20 214
+ 0.9492 8 11 cbr 24 ------- 3 8.0 0.7 21 215
+ 0.9492 9 11 cbr 1000 ------- 1 9.0 0.8 20 216
+ 0.9492 9 11 cbr 24 ------- 1 9.0 0.8 21 217
+ 0.9492 10 11 cbr 1000 ------- 2 10.0 0.9 20 218
+ 0.9492 10 11 cbr 24 ------- 2 10.0 0.9 21 219
d 0.995334 10 11 cbr 1000 ------- 1 3.0 0.2 0 4
d 0.995334 9 11 cbr 1000 ------- 1 3.0 0.2 0 4
d 0.995334 8 11 cbr 1000 ------- 1 3.0 0.2 0 4
d 0.995334 7 11 cbr 1000 ------- 1 3.0 0.2 0 4
d 0.995334 6 11 cbr 1000 ------- 1 3.0 0.2 0 4
d 0.995334 5 11 cbr 1000 ------- 1 3.0 0.2 0 4
d 0.995334 4 11 cbr 1000 ------- 1 3.0 0.2 0 4
d 0.995334 2 11 cbr 1000 ------- 1 3.0 0.2 0 4
d 0.995334 1 11 cbr 1000 ------- 1 3.0 0.2 0 4
+ 1.00112 1 0 cbr 1000 ------- 2 1.0 0.0 22 220
- 1.00112 1 0 cbr 1000 ------- 2 1.0 0.0 22 220
+ 1.00112 1 0 cbr 24 ------- 2 1.0 0.0 23 221
h 1.00112 2 11 cbr 1000 ------- 3 2.0 0.1 22 222
h 1.00112 2 11 cbr 24 ------- 3 2.0 0.1 23 223
h 1.00112 3 11 cbr 1000 ------- 1 3.0 0.2 22 224
h 1.00112 3 11 cbr 24 ------- 1 3.0 0.2 23 225
h 1.00112 4 11 cbr 1000 ------- 2 4.0 0.3 22 226
h 1.00112 4 11 cbr 24 ------- 2 4.0 0.3 23 227
h 1.00112 5 11 cbr 1000 ------- 3 5.0 0.4 22 228
h 1.00112 5 11 cbr 24 ------- 3 5.0 0.4 23 229
h 1.00112 6 11 cbr 1000 ------- 1 6.0 0.5 22 230
h 1.00112 6 11 cbr 24 ------- 1 6.0 0.5 23 231
h 1.00112 7 11 cbr 1000 ------- 2 7.0 0.6 22 232
h 1.00112 7 11 cbr 24 ------- 2 7.0 0.6 23 233
h 1.00112 8 11 cbr 1000 ------- 3 8.0 0.7 22 234
h 1.00112 8 11 cbr 24 ------- 3 8.0 0.7 23 235
h 1.00112 9 11 cbr 1000 ------- 1 9.0 0.8 22 236
h 1.00112 9 11 cbr 24 ------- 1 9.0 0.8 23 237
h 1.00112 10 11 cbr 1000 ------- 2 10.0 0.9 22 238
h 1.00112 10 11 cbr 24 ------- 2 10.0 0.9 23 239
r 1.00912 1 0 cbr 1000 ------- 2 1.0 0.0 22 220
- 1.00912 1 0 cbr 24 ------- 2 1.0 0.0 23 221
r 1.009312 1 0 cbr 24 ------- 2 1.0 0.0 23 221
r 1.025334 11 0 cbr 1000 ------- 1 3.0 0.2 0 4
+ 1.03112 2 11 cbr 1000 ------- 3 2.0 0.1 22 222
+ 1.03112 2 11 cbr 24 ------- 3 2.0 0.1 23 223
+ 1.03112 3 11 cbr 1000 ------- 1 3.0 0.2 22 224
+ 1.03112 3 11 cbr 24 ------- 1 3.0 0.2 23 225
+ 1.03112 4 11 cbr 1000 ------- 2 4.0 0.3 22 226
+ 1.03112 4 11 cbr 24 ------- 2 4.0 0.3 23 227
+ 1.03112 5 11 cbr 1000 ------- 3 5.0 0.4 22 228
+ 1.03112 5 11 cbr 24 ------- 3 5.0 0.4 23 229
+ 1.03112 6 11 cbr 1000 ------- 1 6.0 0.5 22 230
+ 1.03112 6 11 cbr 24 ------- 1 6.0 0.5 23 231