h 0.1 1 6 tcp 40 ------- 2 1.0 0.0 0 0
h 0.1 2 6 tcp 40 ------- 3 2.0 0.1 0 1
h 0.1 3 6 tcp 40 ------- 1 3.0 0.2 0 2
h 0.1 4 6 tcp 40 ------- 2 4.0 0.3 0 3
h 0.1 5 6 tcp 40 ------- 3 5.0 0.4 0 4
+ 0.13 1 6 tcp 40 ------- 2 1.0 0.0 0 0
- 0.13 1 6 tcp 40 ------- 2 1.0 0.0 0 0
+ 0.13 2 6 tcp 40 ------- 3 2.0 0.1 0 1
- 0.13 2 6 tcp 40 ------- 3 2.0 0.1 0 1
+ 0.13 3 6 tcp 40 ------- 1 3.0 0.2 0 2
- 0.13 3 6 tcp 40 ------- 1 3.0 0.2 0 2
+ 0.13 4 6 tcp 40 ------- 2 4.0 0.3 0 3
- 0.13 4 6 tcp 40 ------- 2 4.0 0.3 0 3
+ 0.13 5 6 tcp 40 ------- 3 5.0 0.4 0 4
- 0.13 5 6 tcp 40 ------- 3 5.0 0.4 0 4
d 0.130004 5 6 tcp 40 ------- 2 1.0 0.0 0 0
d 0.130004 4 6 tcp 40 ------- 2 1.0 0.0 0 0
d 0.130004 3 6 tcp 40 ------- 2 1.0 0.0 0 0
d 0.130004 2 6 tcp 40 ------- 2 1.0 0.0 0 0
d 0.130004 5 6 tcp 40 ------- 3 2.0 0.1 0 1
d 0.130004 4 6 tcp 40 ------- 3 2.0 0.1 0 1
d 0.130004 3 6 tcp 40 ------- 3 2.0 0.1 0 1
d 0.130004 1 6 tcp 40 ------- 3 2.0 0.1 0 1
d 0.130004 5 6 tcp 40 ------- 1 3.0 0.2 0 2
d 0.130004 4 6 tcp 40 ------- 1 3.0 0.2 0 2
d 0.130004 2 6 tcp 40 ------- 1 3.0 0.2 0 2
d 0.130004 1 6 tcp 40 ------- 1 3.0 0.2 0 2
d 0.130004 5 6 tcp 40 ------- 2 4.0 0.3 0 3
d 0.130004 3 6 tcp 40 ------- 2 4.0 0.3 0 3
d 0.130004 2 6 tcp 40 ------- 2 4.0 0.3 0 3
d 0.130004 1 6 tcp 40 ------- 2 4.0 0.3 0 3
d 0.130004 4 6 tcp 40 ------- 3 5.0 0.4 0 4
d 0.130004 3 6 tcp 40 ------- 3 5.0 0.4 0 4
d 0.130004 2 6 tcp 40 ------- 3 5.0 0.4 0 4
d 0.130004 1 6 tcp 40 ------- 3 5.0 0.4 0 4
r 0.160004 6 0 tcp 40 ------- 2 1.0 0.0 0 0
h 0.160004 0 6 ack 40 ------- 2 0.0 1.0 0 5
r 0.160004 6 0 tcp 40 ------- 3 2.0 0.1 0 1
h 0.160004 0 6 ack 40 ------- 3 0.1 2.0 0 6
r 0.160004 6 0 tcp 40 ------- 1 3.0 0.2 0 2
h 0.160004 0 6 ack 40 ------- 1 0.2 3.0 0 7
r 0.160004 6 0 tcp 40 ------- 2 4.0 0.3 0 3
h 0.160004 0 6 ack 40 ------- 2 0.3 4.0 0 8
r 0.160004 6 0 tcp 40 ------- 3 5.0 0.4 0 4
h 0.160004 0 6 ack 40 ------- 3 0.4 5.0 0 9
+ 0.190004 0 6 ack 40 ------- 2 0.0 1.0 0 5
- 0.190004 0 6 ack 40 ------- 2 0.0 1.0 0 5
+ 0.190004 0 6 ack 40 ------- 3 0.1 2.0 0 6
+ 0.190004 0 6 ack 40 ------- 1 0.2 3.0 0 7
+ 0.190004 0 6 ack 40 ------- 2 0.3 4.0 0 8
+ 0.190004 0 6 ack 40 ------- 3 0.4 5.0 0 9
d 0.190008 5 6 ack 40 ------- 2 0.0 1.0 0 5
d 0.190008 4 6 ack 40 ------- 2 0.0 1.0 0 5
d 0.190008 3 6 ack 40 ------- 2 0.0 1.0 0 5
d 0.190008 2 6 ack 40 ------- 2 0.0 1.0 0 5
- 0.19042 0 6 ack 40 ------- 3 0.1 2.0 0 6
d 0.190424 5 6 ack 40 ------- 3 0.1 2.0 0 6
d 0.190424 4 6 ack 40 ------- 3 0.1 2.0 0 6
d 0.190424 3 6 ack 40 ------- 3 0.1 2.0 0 6
d 0.190424 1 6 ack 40 ------- 3 0.1 2.0 0 6
- 0.190836 0 6 ack 40 ------- 1 0.2 3.0 0 7
d 0.19084 5 6 ack 40 ------- 1 0.2 3.0 0 7
d 0.19084 4 6 ack 40 ------- 1 0.2 3.0 0 7
d 0.19084 2 6 ack 40 ------- 1 0.2 3.0 0 7
d 0.19084 1 6 ack 40 ------- 1 0.2 3.0 0 7
- 0.191252 0 6 ack 40 ------- 2 0.3 4.0 0 8
d 0.191256 5 6 ack 40 ------- 2 0.3 4.0 0 8
d 0.191256 3 6 ack 40 ------- 2 0.3 4.0 0 8
d 0.191256 2 6 ack 40 ------- 2 0.3 4.0 0 8
d 0.191256 1 6 ack 40 ------- 2 0.3 4.0 0 8
- 0.191668 0 6 ack 40 ------- 3 0.4 5.0 0 9
d 0.191672 4 6 ack 40 ------- 3 0.4 5.0 0 9
d 0.191672 3 6 ack 40 ------- 3 0.4 5.0 0 9
d 0.191672 2 6 ack 40 ------- 3 0.4 5.0 0 9
d 0.191672 1 6 ack 40 ------- 3 0.4 5.0 0 9
r 0.220008 6 1 ack 40 ------- 2 0.0 1.0 0 5
h 0.220008 1 6 tcp 1040 ------- 2 1.0 0.0 1 10
h 0.220008 1 6 tcp 1040 ------- 2 1.0 0.0 2 11
r 0.220424 6 2 ack 40 ------- 3 0.1 2.0 0 6
h 0.220424 2 6 tcp 1040 ------- 3 2.0 0.1 1 12
h 0.220424 2 6 tcp 1040 ------- 3 2.0 0.1 2 13
r 0.22084 6 3 ack 40 ------- 1 0.2 3.0 0 7
h 0.22084 3 6 tcp 1040 ------- 1 3.0 0.2 1 14
h 0.22084 3 6 tcp 1040 ------- 1 3.0 0.2 2 15
r 0.221256 6 4 ack 40 ------- 2 0.3 4.0 0 8
h 0.221256 4 6 tcp 1040 ------- 2 4.0 0.3 1 16
h 0.221256 4 6 tcp 1040 ------- 2 4.0 0.3 2 17
r 0.221672 6 5 ack 40 ------- 3 0.4 5.0 0 9
h 0.221672 5 6 tcp 1040 ------- 3 5.0 0.4 1 18
h 0.221672 5 6 tcp 1040 ------- 3 5.0 0.4 2 19
+ 0.250008 1 6 tcp 1040 ------- 2 1.0 0.0 1 10
- 0.250008 1 6 tcp 1040 ------- 2 1.0 0.0 1 10
+ 0.250008 1 6 tcp 1040 ------- 2 1.0 0.0 2 11
d 0.250012 5 6 tcp 1040 ------- 2 1.0 0.0 1 10
d 0.250012 4 6 tcp 1040 ------- 2 1.0 0.0 1 10
d 0.250012 3 6 tcp 1040 ------- 2 1.0 0.0 1 10
d 0.250012 2 6 tcp 1040 ------- 2 1.0 0.0 1 10
+ 0.250424 2 6 tcp 1040 ------- 3 2.0 0.1 1 12
- 0.250424 2 6 tcp 1040 ------- 3 2.0 0.1 1 12
+ 0.250424 2 6 tcp 1040 ------- 3 2.0 0.1 2 13
d 0.250428 5 6 tcp 1040 ------- 3 2.0 0.1 1 12
d 0.250428 4 6 tcp 1040 ------- 3 2.0 0.1 1 12
d 0.250428 3 6 tcp 1040 ------- 3 2.0 0.1 1 12
d 0.250428 1 6 tcp 1040 ------- 3 2.0 0.1 1 12
+ 0.25084 3 6 tcp 1040 ------- 1 3.0 0.2 1 14
- 0.25084 3 6 tcp 1040 ------- 1 3.0 0.2 1 14
+ 0.25084 3 6 tcp 1040 ------- 1 3.0 0.2 2 15
d 0.250844 5 6 tcp 1040 ------- 1 3.0 0.2 1 14
d 0.250844 4 6 tcp 1040 ------- 1 3.0 0.2 1 14
d 0.250844 2 6 tcp 1040 ------- 1 3.0 0.2 1 14
d 0.250844 1 6 tcp 1040 ------- 1 3.0 0.2 1 14
+ 0.251256 4 6 tcp 1040 ------- 2 4.0 0.3 1 16
- 0.251256 4 6 tcp 1040 ------- 2 4.0 0.3 1 16
+ 0.251256 4 6 tcp 1040 ------- 2 4.0 0.3 2 17
d 0.25126 5 6 tcp 1040 ------- 2 4.0 0.3 1 16
d 0.25126 3 6 tcp 1040 ------- 2 4.0 0.3 1 16
d 0.25126 2 6 tcp 1040 ------- 2 4.0 0.3 1 16
d 0.25126 1 6 tcp 1040 ------- 2 4.0 0.3 1 16
+ 0.251672 5 6 tcp 1040 ------- 3 5.0 0.4 1 18
- 0.251672 5 6 tcp 1040 ------- 3 5.0 0.4 1 18
+ 0.251672 5 6 tcp 1040 ------- 3 5.0 0.4 2 19
d 0.251676 4 6 tcp 1040 ------- 3 5.0 0.4 1 18
d 0.251676 3 6 tcp 1040 ------- 3 5.0 0.4 1 18
d 0.251676 2 6 tcp 1040 ------- 3 5.0 0.4 1 18
d 0.251676 1 6 tcp 1040 ------- 3 5.0 0.4 1 18
- 0.254424 1 6 tcp 1040 ------- 2 1.0 0.0 2 11
d 0.254428 5 6 tcp 1040 ------- 2 1.0 0.0 2 11
d 0.254428 4 6 tcp 1040 ------- 2 1.0 0.0 2 11
d 0.254428 3 6 tcp 1040 ------- 2 1.0 0.0 2 11
d 0.254428 2 6 tcp 1040 ------- 2 1.0 0.0 2 11
- 0.25484 2 6 tcp 1040 ------- 3 2.0 0.1 2 13
d 0.254844 5 6 tcp 1040 ------- 3 2.0 0.1 2 13
d 0.254844 4 6 tcp 1040 ------- 3 2.0 0.1 2 13
d 0.254844 3 6 tcp 1040 ------- 3 2.0 0.1 2 13
d 0.254844 1 6 tcp 1040 ------- 3 2.0 0.1 2 13
- 0.255256 3 6 tcp 1040 ------- 1 3.0 0.2 2 15
d 0.25526 5 6 tcp 1040 ------- 1 3.0 0.2 2 15
d 0.25526 4 6 tcp 1040 ------- 1 3.0 0.2 2 15
d 0.25526 2 6 tcp 1040 ------- 1 3.0 0.2 2 15
d 0.25526 1 6 tcp 1040 ------- 1 3.0 0.2 2 15
- 0.255672 4 6 tcp 1040 ------- 2 4.0 0.3 2 17
d 0.255676 5 6 tcp 1040 ------- 2 4.0 0.3 2 17
d 0.255676 3 6 tcp 1040 ------- 2 4.0 0.3 2 17
d 0.255676 2 6 tcp 1040 ------- 2 4.0 0.3 2 17
d 0.255676 1 6 tcp 1040 ------- 2 4.0 0.3 2 17
- 0.256088 5 6 tcp 1040 ------- 3 5.0 0.4 2 19
d 0.256092 4 6 tcp 1040 ------- 3 5.0 0.4 2 19
d 0.256092 3 6 tcp 1040 ------- 3 5.0 0.4 2 19
d 0.256092 2 6 tcp 1040 ------- 3 5.0 0.4 2 19
d 0.256092 1 6 tcp 1040 ------- 3 5.0 0.4 2 19
r 0.280012 6 0 tcp 1040 ------- 2 1.0 0.0 1 10
h 0.280012 0 6 ack 40 ------- 2 0.0 1.0 1 20
r 0.280428 6 0 tcp 1040 ------- 3 2.0 0.1 1 12
h 0.280428 0 6 ack 40 ------- 3 0.1 2.0 1 21
r 0.280844 6 0 tcp 1040 ------- 1 3.0 0.2 1 14
h 0.280844 0 6 ack 40 ------- 1 0.2 3.0 1 22
r 0.28126 6 0 tcp 1040 ------- 2 4.0 0.3 1 16
h 0.28126 0 6 ack 40 ------- 2 0.3 4.0 1 23
r 0.281676 6 0 tcp 1040 ------- 3 5.0 0.4 1 18
h 0.281676 0 6 ack 40 ------- 3 0.4 5.0 1 24
r 0.284428 6 0 tcp 1040 ------- 2 1.0 0.0 2 11
h 0.284428 0 6 ack 40 ------- 2 0.0 1.0 2 25
r 0.284844 6 0 tcp 1040 ------- 3 2.0 0.1 2 13
h 0.284844 0 6 ack 40 ------- 3 0.1 2.0 2 26
r 0.28526 6 0 tcp 1040 ------- 1 3.0 0.2 2 15
h 0.28526 0 6 ack 40 ------- 1 0.2 3.0 2 27
r 0.285676 6 0 tcp 1040 ------- 2 4.0 0.3 2 17
h 0.285676 0 6 ack 40 ------- 2 0.3 4.0 2 28
r 0.286092 6 0 tcp 1040 ------- 3 5.0 0.4 2 19
h 0.286092 0 6 ack 40 ------- 3 0.4 5.0 2 29
+ 0.310012 0 6 ack 40 ------- 2 0.0 1.0 1 20
- 0.310012 0 6 ack 40 ------- 2 0.0 1.0 1 20
d 0.310016 5 6 ack 40 ------- 2 0.0 1.0 1 20
d 0.310016 4 6 ack 40 ------- 2 0.0 1.0 1 20
d 0.310016 3 6 ack 40 ------- 2 0.0 1.0 1 20
d 0.310016 2 6 ack 40 ------- 2 0.0 1.0 1 20
+ 0.310428 0 6 ack 40 ------- 3 0.1 2.0 1 21
- 0.310428 0 6 ack 40 ------- 3 0.1 2.0 1 21
d 0.310432 5 6 ack 40 ------- 3 0.1 2.0 1 21
d 0.310432 4 6 ack 40 ------- 3 0.1 2.0 1 21
d 0.310432 3 6 ack 40 ------- 3 0.1 2.0 1 21
d 0.310432 1 6 ack 40 ------- 3 0.1 2.0 1 21
+ 0.310844 0 6 ack 40 ------- 1 0.2 3.0 1 22
- 0.310844 0 6 ack 40 ------- 1 0.2 3.0 1 22
d 0.310848 5 6 ack 40 ------- 1 0.2 3.0 1 22
d 0.310848 4 6 ack 40 ------- 1 0.2 3.0 1 22
d 0.310848 2 6 ack 40 ------- 1 0.2 3.0 1 22
d 0.310848 1 6 ack 40 ------- 1 0.2 3.0 1 22
+ 0.31126 0 6 ack 40 ------- 2 0.3 4.0 1 23
- 0.31126 0 6 ack 40 ------- 2 0.3 4.0 1 23
d 0.311264 5 6 ack 40 ------- 2 0.3 4.0 1 23
d 0.311264 3 6 ack 40 ------- 2 0.3 4.0 1 23
d 0.311264 2 6 ack 40 ------- 2 0.3 4.0 1 23
d 0.311264 1 6 ack 40 ------- 2 0.3 4.0 1 23
+ 0.311676 0 6 ack 40 ------- 3 0.4 5.0 1 24
- 0.311676 0 6 ack 40 ------- 3 0.4 5.0 1 24
d 0.31168 4 6 ack 40 ------- 3 0.4 5.0 1 24
d 0.31168 3 6 ack 40 ------- 3 0.4 5.0 1 24
d 0.31168 2 6 ack 40 ------- 3 0.4 5.0 1 24
d 0.31168 1 6 ack 40 ------- 3 0.4 5.0 1 24
+ 0.314428 0 6 ack 40 ------- 2 0.0 1.0 2 25
- 0.314428 0 6 ack 40 ------- 2 0.0 1.0 2 25
d 0.314432 5 6 ack 40 ------- 2 0.0 1.0 2 25
d 0.314432 4 6 ack 40 ------- 2 0.0 1.0 2 25
d 0.314432 3 6 ack 40 ------- 2 0.0 1.0 2 25
d 0.314432 2 6 ack 40 ------- 2 0.0 1.0 2 25
+ 0.314844 0 6 ack 40 ------- 3 0.1 2.0 2 26
- 0.314844 0 6 ack 40 ------- 3 0.1 2.0 2 26
d 0.314848 5 6 ack 40 ------- 3 0.1 2.0 2 26
d 0.314848 4 6 ack 40 ------- 3 0.1 2.0 2 26
d 0.314848 3 6 ack 40 ------- 3 0.1 2.0 2 26
d 0.314848 1 6 ack 40 ------- 3 0.1 2.0 2 26
+ 0.31526 0 6 ack 40 ------- 1 0.2 3.0 2 27
- 0.31526 0 6 ack 40 ------- 1 0.2 3.0 2 27
d 0.315264 5 6 ack 40 ------- 1 0.2 3.0 2 27
d 0.315264 4 6 ack 40 ------- 1 0.2 3.0 2 27
d 0.315264 2 6 ack 40 ------- 1 0.2 3.0 2 27
d 0.315264 1 6 ack 40 ------- 1 0.2 3.0 2 27
+ 0.315676 0 6 ack 40 ------- 2 0.3 4.0 2 28
- 0.315676 0 6 ack 40 ------- 2 0.3 4.0 2 28
d 0.31568 5 6 ack 40 ------- 2 0.3 4.0 2 28
d 0.31568 3 6 ack 40 ------- 2 0.3 4.0 2 28
d 0.31568 2 6 ack 40 ------- 2 0.3 4.0 2 28
d 0.31568 1 6 ack 40 ------- 2 0.3 4.0 2 28
+ 0.316092 0 6 ack 40 ------- 3 0.4 5.0 2 29
- 0.316092 0 6 ack 40 ------- 3 0.4 5.0 2 29
d 0.316096 4 6 ack 40 ------- 3 0.4 5.0 2 29
d 0.316096 3 6 ack 40 ------- 3 0.4 5.0 2 29
d 0.316096 2 6 ack 40 ------- 3 0.4 5.0 2 29
d 0.316096 1 6 ack 40 ------- 3 0.4 5.0 2 29
r 0.340016 6 1 ack 40 ------- 2 0.0 1.0 1 20
h 0.340016 1 6 tcp 1040 ------- 2 1.0 0.0 3 30
h 0.340016 1 6 tcp 1040 ------- 2 1.0 0.0 4 31
r 0.340432 6 2 ack 40 ------- 3 0.1 2.0 1 21
h 0.340432 2 6 tcp 1040 ------- 3 2.0 0.1 3 32
h 0.340432 2 6 tcp 1040 ------- 3 2.0 0.1 4 33
r 0.340848 6 3 ack 40 ------- 1 0.2 3.0 1 22
h 0.340848 3 6 tcp 1040 ------- 1 3.0 0.2 3 34
h 0.340848 3 6 tcp 1040 ------- 1 3.0 0.2 4 35
r 0.341264 6 4 ack 40 ------- 2 0.3 4.0 1 23
h 0.341264 4 6 tcp 1040 ------- 2 4.0 0.3 3 36
h 0.341264 4 6 tcp 1040 ------- 2 4.0 0.3 4 37
r 0.34168 6 5 ack 40 ------- 3 0.4 5.0 1 24
h 0.34168 5 6 tcp 1040 ------- 3 5.0 0.4 3 38
h 0.34168 5 6 tcp 1040 ------- 3 5.0 0.4 4 39
r 0.344432 6 1 ack 40 ------- 2 0.0 1.0 2 25
h 0.344432 1 6 tcp 1040 ------- 2 1.0 0.0 5 40
h 0.344432 1 6 tcp 1040 ------- 2 1.0 0.0 6 41
r 0.344848 6 2 ack 40 ------- 3 0.1 2.0 2 26
h 0.344848 2 6 tcp 1040 ------- 3 2.0 0.1 5 42
h 0.344848 2 6 tcp 1040 ------- 3 2.0 0.1 6 43
r 0.345264 6 3 ack 40 ------- 1 0.2 3.0 2 27
h 0.345264 3 6 tcp 1040 ------- 1 3.0 0.2 5 44
h 0.345264 3 6 tcp 1040 ------- 1 3.0 0.2 6 45
r 0.34568 6 4 ack 40 ------- 2 0.3 4.0 2 28
h 0.34568 4 6 tcp 1040 ------- 2 4.0 0.3 5 46
h 0.34568 4 6 tcp 1040 ------- 2 4.0 0.3 6 47
r 0.346096 6 5 ack 40 ------- 3 0.4 5.0 2 29
h 0.346096 5 6 tcp 1040 ------- 3 5.0 0.4 5 48
h 0.346096 5 6 tcp 1040 ------- 3 5.0 0.4 6 49
+ 0.370016 1 6 tcp 1040 ------- 2 1.0 0.0 3 30
- 0.370016 1 6 tcp 1040 ------- 2 1.0 0.0 3 30
+ 0.370016 1 6 tcp 1040 ------- 2 1.0 0.0 4 31
d 0.37002 5 6 tcp 1040 ------- 2 1.0 0.0 3 30
d 0.37002 4 6 tcp 1040 ------- 2 1.0 0.0 3 30
d 0.37002 3 6 tcp 1040 ------- 2 1.0 0.0 3 30
d 0.37002 2 6 tcp 1040 ------- 2 1.0 0.0 3 30
+ 0.370432 2 6 tcp 1040 ------- 3 2.0 0.1 3 32
- 0.370432 2 6 tcp 1040 ------- 3 2.0 0.1 3 32
+ 0.370432 2 6 tcp 1040 ------- 3 2.0 0.1 4 33
d 0.370436 5 6 tcp 1040 ------- 3 2.0 0.1 3 32
d 0.370436 4 6 tcp 1040 ------- 3 2.0 0.1 3 32
d 0.370436 3 6 tcp 1040 ------- 3 2.0 0.1 3 32
d 0.370436 1 6 tcp 1040 ------- 3 2.0 0.1 3 32
+ 0.370848 3 6 tcp 1040 ------- 1 3.0 0.2 3 34
- 0.370848 3 6 tcp 1040 ------- 1 3.0 0.2 3 34
+ 0.370848 3 6 tcp 1040 ------- 1 3.0 0.2 4 35
d 0.370852 5 6 tcp 1040 ------- 1 3.0 0.2 3 34
d 0.370852 4 6 tcp 1040 ------- 1 3.0 0.2 3 34
d 0.370852 2 6 tcp 1040 ------- 1 3.0 0.2 3 34
d 0.370852 1 6 tcp 1040 ------- 1 3.0 0.2 3 34
+ 0.371264 4 6 tcp 1040 ------- 2 4.0 0.3 3 36
- 0.371264 4 6 tcp 1040 ------- 2 4.0 0.3 3 36
+ 0.371264 4 6 tcp 1040 ------- 2 4.0 0.3 4 37
d 0.371268 5 6 tcp 1040 ------- 2 4.0 0.3 3 36
d 0.371268 3 6 tcp 1040 ------- 2 4.0 0.3 3 36
d 0.371268 2 6 tcp 1040 ------- 2 4.0 0.3 3 36
d 0.371268 1 6 tcp 1040 ------- 2 4.0 0.3 3 36
+ 0.37168 5 6 tcp 1040 ------- 3 5.0 0.4 3 38
- 0.37168 5 6 tcp 1040 ------- 3 5.0 0.4 3 38
+ 0.37168 5 6 tcp 1040 ------- 3 5.0 0.4 4 39
d 0.371684 4 6 tcp 1040 ------- 3 5.0 0.4 3 38
d 0.371684 3 6 tcp 1040 ------- 3 5.0 0.4 3 38
d 0.371684 2 6 tcp 1040 ------- 3 5.0 0.4 3 38
d 0.371684 1 6 tcp 1040 ------- 3 5.0 0.4 3 38
+ 0.374432 1 6 tcp 1040 ------- 2 1.0 0.0 5 40
+ 0.374432 1 6 tcp 1040 ------- 2 1.0 0.0 6 41
- 0.374432 1 6 tcp 1040 ------- 2 1.0 0.0 4 31
d 0.374436 5 6 tcp 1040 ------- 2 1.0 0.0 4 31
d 0.374436 4 6 tcp 1040 ------- 2 1.0 0.0 4 31
d 0.374436 3 6 tcp 1040 ------- 2 1.0 0.0 4 31
d 0.374436 2 6 tcp 1040 ------- 2 1.0 0.0 4 31
+ 0.374848 2 6 tcp 1040 ------- 3 2.0 0.1 5 42
+ 0.374848 2 6 tcp 1040 ------- 3 2.0 0.1 6 43
- 0.374848 2 6 tcp 1040 ------- 3 2.0 0.1 4 33
d 0.374852 5 6 tcp 1040 ------- 3 2.0 0.1 4 33
d 0.374852 4 6 tcp 1040 ------- 3 2.0 0.1 4 33
d 0.374852 3 6 tcp 1040 ------- 3 2.0 0.1 4 33
d 0.374852 1 6 tcp 1040 ------- 3 2.0 0.1 4 33
+ 0.375264 3 6 tcp 1040 ------- 1 3.0 0.2 5 44
+ 0.375264 3 6 tcp 1040 ------- 1 3.0 0.2 6 45
- 0.375264 3 6 tcp 1040 ------- 1 3.0 0.2 4 35
d 0.375268 5 6 tcp 1040 ------- 1 3.0 0.2 4 35
d 0.375268 4 6 tcp 1040 ------- 1 3.0 0.2 4 35
d 0.375268 2 6 tcp 1040 ------- 1 3.0 0.2 4 35
d 0.375268 1 6 tcp 1040 ------- 1 3.0 0.2 4 35
+ 0.37568 4 6 tcp 1040 ------- 2 4.0 0.3 5 46
+ 0.37568 4 6 tcp 1040 ------- 2 4.0 0.3 6 47
- 0.37568 4 6 tcp 1040 ------- 2 4.0 0.3 4 37
d 0.375684 5 6 tcp 1040 ------- 2 4.0 0.3 4 37
d 0.375684 3 6 tcp 1040 ------- 2 4.0 0.3 4 37
d 0.375684 2 6 tcp 1040 ------- 2 4.0 0.3 4 37
d 0.375684 1 6 tcp 1040 ------- 2 4.0 0.3 4 37
+ 0.376096 5 6 tcp 1040 ------- 3 5.0 0.4 5 48
+ 0.376096 5 6 tcp 1040 ------- 3 5.0 0.4 6 49
- 0.376096 5 6 tcp 1040 ------- 3 5.0 0.4 4 39
d 0.3761 4 6 tcp 1040 ------- 3 5.0 0.4 4 39
d 0.3761 3 6 tcp 1040 ------- 3 5.0 0.4 4 39
d 0.3761 2 6 tcp 1040 ------- 3 5.0 0.4 4 39
d 0.3761 1 6 tcp 1040 ------- 3 5.0 0.4 4 39
- 0.378848 1 6 tcp 1040 ------- 2 1.0 0.0 5 40
d 0.378852 5 6 tcp 1040 ------- 2 1.0 0.0 5 40
d 0.378852 4 6 tcp 1040 ------- 2 1.0 0.0 5 40
d 0.378852 3 6 tcp 1040 ------- 2 1.0 0.0 5 40
d 0.378852 2 6 tcp 1040 ------- 2 1.0 0.0 5 40
- 0.379264 2 6 tcp 1040 ------- 3 2.0 0.1 5 42
d 0.379268 5 6 tcp 1040 ------- 3 2.0 0.1 5 42
d 0.379268 4 6 tcp 1040 ------- 3 2.0 0.1 5 42
d 0.379268 3 6 tcp 1040 ------- 3 2.0 0.1 5 42
d 0.379268 1 6 tcp 1040 ------- 3 2.0 0.1 5 42
- 0.37968 3 6 tcp 1040 ------- 1 3.0 0.2 5 44
d 0.379684 5 6 tcp 1040 ------- 1 3.0 0.2 5 44
d 0.379684 4 6 tcp 1040 ------- 1 3.0 0.2 5 44
d 0.379684 2 6 tcp 1040 ------- 1 3.0 0.2 5 44
d 0.379684 1 6 tcp 1040 ------- 1 3.0 0.2 5 44
- 0.380096 4 6 tcp 1040 ------- 2 4.0 0.3 5 46
d 0.3801 5 6 tcp 1040 ------- 2 4.0 0.3 5 46
d 0.3801 3 6 tcp 1040 ------- 2 4.0 0.3 5 46
d 0.3801 2 6 tcp 1040 ------- 2 4.0 0.3 5 46
d 0.3801 1 6 tcp 1040 ------- 2 4.0 0.3 5 46
- 0.380512 5 6 tcp 1040 ------- 3 5.0 0.4 5 48
d 0.380516 4 6 tcp 1040 ------- 3 5.0 0.4 5 48
d 0.380516 3 6 tcp 1040 ------- 3 5.0 0.4 5 48
d 0.380516 2 6 tcp 1040 ------- 3 5.0 0.4 5 48
d 0.380516 1 6 tcp 1040 ------- 3 5.0 0.4 5 48
- 0.383264 1 6 tcp 1040 ------- 2 1.0 0.0 6 41
d 0.383268 5 6 tcp 1040 ------- 2 1.0 0.0 6 41
d 0.383268 4 6 tcp 1040 ------- 2 1.0 0.0 6 41
d 0.383268 3 6 tcp 1040 ------- 2 1.0 0.0 6 41
d 0.383268 2 6 tcp 1040 ------- 2 1.0 0.0 6 41
- 0.38368 2 6 tcp 1040 ------- 3 2.0 0.1 6 43
d 0.383684 5 6 tcp 1040 ------- 3 2.0 0.1 6 43
d 0.383684 4 6 tcp 1040 ------- 3 2.0 0.1 6 43
d 0.383684 3 6 tcp 1040 ------- 3 2.0 0.1 6 43
d 0.383684 1 6 tcp 1040 ------- 3 2.0 0.1 6 43
- 0.384096 3 6 tcp 1040 ------- 1 3.0 0.2 6 45
d 0.3841 5 6 tcp 1040 ------- 1 3.0 0.2 6 45
d 0.3841 4 6 tcp 1040 ------- 1 3.0 0.2 6 45
d 0.3841 2 6 tcp 1040 ------- 1 3.0 0.2 6 45
d 0.3841 1 6 tcp 1040 ------- 1 3.0 0.2 6 45
- 0.384512 4 6 tcp 1040 ------- 2 4.0 0.3 6 47
d 0.384516 5 6 tcp 1040 ------- 2 4.0 0.3 6 47
d 0.384516 3 6 tcp 1040 ------- 2 4.0 0.3 6 47
d 0.384516 2 6 tcp 1040 ------- 2 4.0 0.3 6 47
d 0.384516 1 6 tcp 1040 ------- 2 4.0 0.3 6 47
- 0.384928 5 6 tcp 1040 ------- 3 5.0 0.4 6 49
d 0.384932 4 6 tcp 1040 ------- 3 5.0 0.4 6 49
d 0.384932 3 6 tcp 1040 ------- 3 5.0 0.4 6 49
d 0.384932 2 6 tcp 1040 ------- 3 5.0 0.4 6 49
d 0.384932 1 6 tcp 1040 ------- 3 5.0 0.4 6 49
r 0.40002 6 0 tcp 1040 ------- 2 1.0 0.0 3 30
h 0.40002 0 6 ack 40 ------- 2 0.0 1.0 3 50
r 0.400436 6 0 tcp 1040 ------- 3 2.0 0.1 3 32
h 0.400436 0 6 ack 40 ------- 3 0.1 2.0 3 51
r 0.400852 6 0 tcp 1040 ------- 1 3.0 0.2 3 34
h 0.400852 0 6 ack 40 ------- 1 0.2 3.0 3 52
r 0.401268 6 0 tcp 1040 ------- 2 4.0 0.3 3 36
h 0.401268 0 6 ack 40 ------- 2 0.3 4.0 3 53
r 0.401684 6 0 tcp 1040 ------- 3 5.0 0.4 3 38
h 0.401684 0 6 ack 40 ------- 3 0.4 5.0 3 54
r 0.404436 6 0 tcp 1040 ------- 2 1.0 0.0 4 31
h 0.404436 0 6 ack 40 ------- 2 0.0 1.0 4 55
r 0.404852 6 0 tcp 1040 ------- 3 2.0 0.1 4 33
h 0.404852 0 6 ack 40 ------- 3 0.1 2.0 4 56
r 0.405268 6 0 tcp 1040 ------- 1 3.0 0.2 4 35
h 0.405268 0 6 ack 40 ------- 1 0.2 3.0 4 57
r 0.405684 6 0 tcp 1040 ------- 2 4.0 0.3 4 37
h 0.405684 0 6 ack 40 ------- 2 0.3 4.0 4 58
r 0.4061 6 0 tcp 1040 ------- 3 5.0 0.4 4 39
h 0.4061 0 6 ack 40 ------- 3 0.4 5.0 4 59
r 0.408852 6 0 tcp 1040 ------- 2 1.0 0.0 5 40
h 0.408852 0 6 ack 40 ------- 2 0.0 1.0 5 60
r 0.409268 6 0 tcp 1040 ------- 3 2.0 0.1 5 42
h 0.409268 0 6 ack 40 ------- 3 0.1 2.0 5 61
r 0.409684 6 0 tcp 1040 ------- 1 3.0 0.2 5 44
h 0.409684 0 6 ack 40 ------- 1 0.2 3.0 5 62
r 0.4101 6 0 tcp 1040 ------- 2 4.0 0.3 5 46
h 0.4101 0 6 ack 40 ------- 2 0.3 4.0 5 63
r 0.410516 6 0 tcp 1040 ------- 3 5.0 0.4 5 48
h 0.410516 0 6 ack 40 ------- 3 0.4 5.0 5 64
r 0.413268 6 0 tcp 1040 ------- 2 1.0 0.0 6 41
h 0.413268 0 6 ack 40 ------- 2 0.0 1.0 6 65
r 0.413684 6 0 tcp 1040 ------- 3 2.0 0.1 6 43
h 0.413684 0 6 ack 40 ------- 3 0.1 2.0 6 66
r 0.4141 6 0 tcp 1040 ------- 1 3.0 0.2 6 45
h 0.4141 0 6 ack 40 ------- 1 0.2 3.0 6 67
r 0.414516 6 0 tcp 1040 ------- 2 4.0 0.3 6 47
h 0.414516 0 6 ack 40 ------- 2 0.3 4.0 6 68
r 0.414932 6 0 tcp 1040 ------- 3 5.0 0.4 6 49
h 0.414932 0 6 ack 40 ------- 3 0.4 5.0 6 69
+ 0.43002 0 6 ack 40 ------- 2 0.0 1.0 3 50
- 0.43002 0 6 ack 40 ------- 2 0.0 1.0 3 50
d 0.430024 5 6 ack 40 ------- 2 0.0 1.0 3 50
d 0.430024 4 6 ack 40 ------- 2 0.0 1.0 3 50
d 0.430024 3 6 ack 40 ------- 2 0.0 1.0 3 50
d 0.430024 2 6 ack 40 ------- 2 0.0 1.0 3 50
+ 0.430436 0 6 ack 40 ------- 3 0.1 2.0 3 51
- 0.430436 0 6 ack 40 ------- 3 0.1 2.0 3 51
d 0.43044 5 6 ack 40 ------- 3 0.1 2.0 3 51
d 0.43044 4 6 ack 40 ------- 3 0.1 2.0 3 51
d 0.43044 3 6 ack 40 ------- 3 0.1 2.0 3 51
d 0.43044 1 6 ack 40 ------- 3 0.1 2.0 3 51
+ 0.430852 0 6 ack 40 ------- 1 0.2 3.0 3 52
- 0.430852 0 6 ack 40 ------- 1 0.2 3.0 3 52
d 0.430856 5 6 ack 40 ------- 1 0.2 3.0 3 52
d 0.430856 4 6 ack 40 ------- 1 0.2 3.0 3 52
d 0.430856 2 6 ack 40 ------- 1 0.2 3.0 3 52
d 0.430856 1 6 ack 40 ------- 1 0.2 3.0 3 52
+ 0.431268 0 6 ack 40 ------- 2 0.3 4.0 3 53
- 0.431268 0 6 ack 40 ------- 2 0.3 4.0 3 53
d 0.431272 5 6 ack 40 ------- 2 0.3 4.0 3 53
d 0.431272 3 6 ack 40 ------- 2 0.3 4.0 3 53
d 0.431272 2 6 ack 40 ------- 2 0.3 4.0 3 53
d 0.431272 1 6 ack 40 ------- 2 0.3 4.0 3 53
+ 0.431684 0 6 ack 40 ------- 3 0.4 5.0 3 54
- 0.431684 0 6 ack 40 ------- 3 0.4 5.0 3 54
d 0.431688 4 6 ack 40 ------- 3 0.4 5.0 3 54
d 0.431688 3 6 ack 40 ------- 3 0.4 5.0 3 54
d 0.431688 2 6 ack 40 ------- 3 0.4 5.0 3 54
d 0.431688 1 6 ack 40 ------- 3 0.4 5.0 3 54
+ 0.434436 0 6 ack 40 ------- 2 0.0 1.0 4 55
- 0.434436 0 6 ack 40 ------- 2 0.0 1.0 4 55
d 0.43444 5 6 ack 40 ------- 2 0.0 1.0 4 55
d 0.43444 4 6 ack 40 ------- 2 0.0 1.0 4 55
d 0.43444 3 6 ack 40 ------- 2 0.0 1.0 4 55
d 0.43444 2 6 ack 40 ------- 2 0.0 1.0 4 55
+ 0.434852 0 6 ack 40 ------- 3 0.1 2.0 4 56
- 0.434852 0 6 ack 40 ------- 3 0.1 2.0 4 56
d 0.434856 5 6 ack 40 ------- 3 0.1 2.0 4 56
d 0.434856 4 6 ack 40 ------- 3 0.1 2.0 4 56
d 0.434856 3 6 ack 40 ------- 3 0.1 2.0 4 56
d 0.434856 1 6 ack 40 ------- 3 0.1 2.0 4 56
+ 0.435268 0 6 ack 40 ------- 1 0.2 3.0 4 57
- 0.435268 0 6 ack 40 ------- 1 0.2 3.0 4 57
d 0.435272 5 6 ack 40 ------- 1 0.2 3.0 4 57
d 0.435272 4 6 ack 40 ------- 1 0.2 3.0 4 57
d 0.435272 2 6 ack 40 ------- 1 0.2 3.0 4 57
d 0.435272 1 6 ack 40 ------- 1 0.2 3.0 4 57
+ 0.435684 0 6 ack 40 ------- 2 0.3 4.0 4 58
- 0.435684 0 6 ack 40 ------- 2 0.3 4.0 4 58
d 0.435688 5 6 ack 40 ------- 2 0.3 4.0 4 58
d 0.435688 3 6 ack 40 ------- 2 0.3 4.0 4 58
d 0.435688 2 6 ack 40 ------- 2 0.3 4.0 4 58
d 0.435688 1 6 ack 40 ------- 2 0.3 4.0 4 58
+ 0.4361 0 6 ack 40 ------- 3 0.4 5.0 4 59
- 0.4361 0 6 ack 40 ------- 3 0.4 5.0 4 59
d 0.436104 4 6 ack 40 ------- 3 0.4 5.0 4 59
d 0.436104 3 6 ack 40 ------- 3 0.4 5.0 4 59
d 0.436104 2 6 ack 40 ------- 3 0.4 5.0 4 59
d 0.436104 1 6 ack 40 ------- 3 0.4 5.0 4 59
+ 0.438852 0 6 ack 40 ------- 2 0.0 1.0 5 60
- 0.438852 0 6 ack 40 ------- 2 0.0 1.0 5 60
d 0.438856 5 6 ack 40 ------- 2 0.0 1.0 5 60
d 0.438856 4 6 ack 40 ------- 2 0.0 1.0 5 60
d 0.438856 3 6 ack 40 ------- 2 0.0 1.0 5 60
d 0.438856 2 6 ack 40 ------- 2 0.0 1.0 5 60
+ 0.439268 0 6 ack 40 ------- 3 0.1 2.0 5 61
- 0.439268 0 6 ack 40 ------- 3 0.1 2.0 5 61
d 0.439272 5 6 ack 40 ------- 3 0.1 2.0 5 61
d 0.439272 4 6 ack 40 ------- 3 0.1 2.0 5 61
d 0.439272 3 6 ack 40 ------- 3 0.1 2.0 5 61
d 0.439272 1 6 ack 40 ------- 3 0.1 2.0 5 61
+ 0.439684 0 6 ack 40 ------- 1 0.2 3.0 5 62
- 0.439684 0 6 ack 40 ------- 1 0.2 3.0 5 62
d 0.439688 5 6 ack 40 ------- 1 0.2 3.0 5 62
d 0.439688 4 6 ack 40 ------- 1 0.2 3.0 5 62
d 0.439688 2 6 ack 40 ------- 1 0.2 3.0 5 62
d 0.439688 1 6 ack 40 ------- 1 0.2 3.0 5 62
+ 0.4401 0 6 ack 40 ------- 2 0.3 4.0 5 63
- 0.4401 0 6 ack 40 ------- 2 0.3 4.0 5 63
d 0.440104 5 6 ack 40 ------- 2 0.3 4.0 5 63
d 0.440104 3 6 ack 40 ------- 2 0.3 4.0 5 63
d 0.440104 2 6 ack 40 ------- 2 0.3 4.0 5 63
d 0.440104 1 6 ack 40 ------- 2 0.3 4.0 5 63
+ 0.440516 0 6 ack 40 ------- 3 0.4 5.0 5 64
- 0.440516 0 6 ack 40 ------- 3 0.4 5.0 5 64
d 0.44052 4 6 ack 40 ------- 3 0.4 5.0 5 64
d 0.44052 3 6 ack 40 ------- 3 0.4 5.0 5 64
d 0.44052 2 6 ack 40 ------- 3 0.4 5.0 5 64
d 0.44052 1 6 ack 40 ------- 3 0.4 5.0 5 64
+ 0.443268 0 6 ack 40 ------- 2 0.0 1.0 6 65
- 0.443268 0 6 ack 40 ------- 2 0.0 1.0 6 65
d 0.443272 5 6 ack 40 ------- 2 0.0 1.0 6 65
d 0.443272 4 6 ack 40 ------- 2 0.0 1.0 6 65
d 0.443272 3 6 ack 40 ------- 2 0.0 1.0 6 65
d 0.443272 2 6 ack 40 ------- 2 0.0 1.0 6 65
+ 0.443684 0 6 ack 40 ------- 3 0.1 2.0 6 66
- 0.443684 0 6 ack 40 ------- 3 0.1 2.0 6 66
d 0.443688 5 6 ack 40 ------- 3 0.1 2.0 6 66
d 0.443688 4 6 ack 40 ------- 3 0.1 2.0 6 66
d 0.443688 3 6 ack 40 ------- 3 0.1 2.0 6 66
d 0.443688 1 6 ack 40 ------- 3 0.1 2.0 6 66
+ 0.4441 0 6 ack 40 ------- 1 0.2 3.0 6 67
- 0.4441 0 6 ack 40 ------- 1 0.2 3.0 6 67
d 0.444104 5 6 ack 40 ------- 1 0.2 3.0 6 67
d 0.444104 4 6 ack 40 ------- 1 0.2 3.0 6 67
d 0.444104 2 6 ack 40 ------- 1 0.2 3.0 6 67
d 0.444104 1 6 ack 40 ------- 1 0.2 3.0 6 67
+ 0.444516 0 6 ack 40 ------- 2 0.3 4.0 6 68
- 0.444516 0 6 ack 40 ------- 2 0.3 4.0 6 68
d 0.44452 5 6 ack 40 ------- 2 0.3 4.0 6 68
d 0.44452 3 6 ack 40 ------- 2 0.3 4.0 6 68
d 0.44452 2 6 ack 40 ------- 2 0.3 4.0 6 68
d 0.44452 1 6 ack 40 ------- 2 0.3 4.0 6 68
+ 0.444932 0 6 ack 40 ------- 3 0.4 5.0 6 69
- 0.444932 0 6 ack 40 ------- 3 0.4 5.0 6 69
d 0.444936 4 6 ack 40 ------- 3 0.4 5.0 6 69
d 0.444936 3 6 ack 40 ------- 3 0.4 5.0 6 69
d 0.444936 2 6 ack 40 ------- 3 0.4 5.0 6 69
d 0.444936 1 6 ack 40 ------- 3 0.4 5.0 6 69
r 0.460024 6 1 ack 40 ------- 2 0.0 1.0 3 50
h 0.460024 1 6 tcp 1040 ------- 2 1.0 0.0 7 70
h 0.460024 1 6 tcp 1040 ------- 2 1.0 0.0 8 71
r 0.46044 6 2 ack 40 ------- 3 0.1 2.0 3 51
h 0.46044 2 6 tcp 1040 ------- 3 2.0 0.1 7 72
h 0.46044 2 6 tcp 1040 ------- 3 2.0 0.1 8 73
r 0.460856 6 3 ack 40 ------- 1 0.2 3.0 3 52
h 0.460856 3 6 tcp 1040 ------- 1 3.0 0.2 7 74
h 0.460856 3 6 tcp 1040 ------- 1 3.0 0.2 8 75
r 0.461272 6 4 ack 40 ------- 2 0.3 4.0 3 53
h 0.461272 4 6 tcp 1040 ------- 2 4.0 0.3 7 76
h 0.461272 4 6 tcp 1040 ------- 2 4.0 0.3 8 77
r 0.461688 6 5 ack 40 ------- 3 0.4 5.0 3 54
h 0.461688 5 6 tcp 1040 ------- 3 5.0 0.4 7 78
h 0.461688 5 6 tcp 1040 ------- 3 5.0 0.4 8 79
r 0.46444 6 1 ack 40 ------- 2 0.0 1.0 4 55
h 0.46444 1 6 tcp 1040 ------- 2 1.0 0.0 9 80
h 0.46444 1 6 tcp 1040 ------- 2 1.0 0.0 10 81
r 0.464856 6 2 ack 40 ------- 3 0.1 2.0 4 56
h 0.464856 2 6 tcp 1040 ------- 3 2.0 0.1 9 82
h 0.464856 2 6 tcp 1040 ------- 3 2.0 0.1 10 83
r 0.465272 6 3 ack 40 ------- 1 0.2 3.0 4 57
h 0.465272 3 6 tcp 1040 ------- 1 3.0 0.2 9 84
h 0.465272 3 6 tcp 1040 ------- 1 3.0 0.2 10 85
r 0.465688 6 4 ack 40 ------- 2 0.3 4.0 4 58
h 0.465688 4 6 tcp 1040 ------- 2 4.0 0.3 9 86
h 0.465688 4 6 tcp 1040 ------- 2 4.0 0.3 10 87
r 0.466104 6 5 ack 40 ------- 3 0.4 5.0 4 59
h 0.466104 5 6 tcp 1040 ------- 3 5.0 0.4 9 88
h 0.466104 5 6 tcp 1040 ------- 3 5.0 0.4 10 89
r 0.468856 6 1 ack 40 ------- 2 0.0 1.0 5 60
h 0.468856 1 6 tcp 1040 ------- 2 1.0 0.0 11 90
h 0.468856 1 6 tcp 1040 ------- 2 1.0 0.0 12 91
r 0.469272 6 2 ack 40 ------- 3 0.1 2.0 5 61
h 0.469272 2 6 tcp 1040 ------- 3 2.0 0.1 11 92
h 0.469272 2 6 tcp 1040 ------- 3 2.0 0.1 12 93
r 0.469688 6 3 ack 40 ------- 1 0.2 3.0 5 62
h 0.469688 3 6 tcp 1040 ------- 1 3.0 0.2 11 94
h 0.469688 3 6 tcp 1040 ------- 1 3.0 0.2 12 95
r 0.470104 6 4 ack 40 ------- 2 0.3 4.0 5 63
h 0.470104 4 6 tcp 1040 ------- 2 4.0 0.3 11 96
h 0.470104 4 6 tcp 1040 ------- 2 4.0 0.3 12 97
r 0.47052 6 5 ack 40 ------- 3 0.4 5.0 5 64
h 0.47052 5 6 tcp 1040 ------- 3 5.0 0.4 11 98
h 0.47052 5 6 tcp 1040 ------- 3 5.0 0.4 12 99
r 0.473272 6 1 ack 40 ------- 2 0.0 1.0 6 65
h 0.473272 1 6 tcp 1040 ------- 2 1.0 0.0 13 100
h 0.473272 1 6 tcp 1040 ------- 2 1.0 0.0 14 101
r 0.473688 6 2 ack 40 ------- 3 0.1 2.0 6 66
h 0.473688 2 6 tcp 1040 ------- 3 2.0 0.1 13 102
h 0.473688 2 6 tcp 1040 ------- 3 2.0 0.1 14 103
r 0.474104 6 3 ack 40 ------- 1 0.2 3.0 6 67
h 0.474104 3 6 tcp 1040 ------- 1 3.0 0.2 13 104
h 0.474104 3 6 tcp 1040 ------- 1 3.0 0.2 14 105
r 0.47452 6 4 ack 40 ------- 2 0.3 4.0 6 68
h 0.47452 4 6 tcp 1040 ------- 2 4.0 0.3 13 106
h 0.47452 4 6 tcp 1040 ------- 2 4.0 0.3 14 107
r 0.474936 6 5 ack 40 ------- 3 0.4 5.0 6 69
h 0.474936 5 6 tcp 1040 ------- 3 5.0 0.4 13 108
h 0.474936 5 6 tcp 1040 ------- 3 5.0 0.4 14 109
+ 0.490024 1 6 tcp 1040 ------- 2 1.0 0.0 7 70
- 0.490024 1 6 tcp 1040 ------- 2 1.0 0.0 7 70
+ 0.490024 1 6 tcp 1040 ------- 2 1.0 0.0 8 71
d 0.490028 5 6 tcp 1040 ------- 2 1.0 0.0 7 70
d 0.490028 4 6 tcp 1040 ------- 2 1.0 0.0 7 70
d 0.490028 3 6 tcp 1040 ------- 2 1.0 0.0 7 70
d 0.490028 2 6 tcp 1040 ------- 2 1.0 0.0 7 70
+ 0.49044 2 6 tcp 1040 ------- 3 2.0 0.1 7 72
- 0.49044 2 6 tcp 1040 ------- 3 2.0 0.1 7 72
+ 0.49044 2 6 tcp 1040 ------- 3 2.0 0.1 8 73
d 0.490444 5 6 tcp 1040 ------- 3 2.0 0.1 7 72
d 0.490444 4 6 tcp 1040 ------- 3 2.0 0.1 7 72
d 0.490444 3 6 tcp 1040 ------- 3 2.0 0.1 7 72
d 0.490444 1 6 tcp 1040 ------- 3 2.0 0.1 7 72
+ 0.490856 3 6 tcp 1040 ------- 1 3.0 0.2 7 74
- 0.490856 3 6 tcp 1040 ------- 1 3.0 0.2 7 74
+ 0.490856 3 6 tcp 1040 ------- 1 3.0 0.2 8 75
d 0.49086 5 6 tcp 1040 ------- 1 3.0 0.2 7 74
d 0.49086 4 6 tcp 1040 ------- 1 3.0 0.2 7 74
d 0.49086 2 6 tcp 1040 ------- 1 3.0 0.2 7 74
d 0.49086 1 6 tcp 1040 ------- 1 3.0 0.2 7 74
+ 0.491272 4 6 tcp 1040 ------- 2 4.0 0.3 7 76
- 0.491272 4 6 tcp 1040 ------- 2 4.0 0.3 7 76
+ 0.491272 4 6 tcp 1040 ------- 2 4.0 0.3 8 77
d 0.491276 5 6 tcp 1040 ------- 2 4.0 0.3 7 76
d 0.491276 3 6 tcp 1040 ------- 2 4.0 0.3 7 76
d 0.491276 2 6 tcp 1040 ------- 2 4.0 0.3 7 76
d 0.491276 1 6 tcp 1040 ------- 2 4.0 0.3 7 76
+ 0.491688 5 6 tcp 1040 ------- 3 5.0 0.4 7 78
- 0.491688 5 6 tcp 1040 ------- 3 5.0 0.4 7 78
+ 0.491688 5 6 tcp 1040 ------- 3 5.0 0.4 8 79
d 0.491692 4 6 tcp 1040 ------- 3 5.0 0.4 7 78
d 0.491692 3 6 tcp 1040 ------- 3 5.0 0.4 7 78
d 0.491692 2 6 tcp 1040 ------- 3 5.0 0.4 7 78
d 0.491692 1 6 tcp 1040 ------- 3 5.0 0.4 7 78
+ 0.49444 1 6 tcp 1040 ------- 2 1.0 0.0 9 80
+ 0.49444 1 6 tcp 1040 ------- 2 1.0 0.0 10 81
- 0.49444 1 6 tcp 1040 ------- 2 1.0 0.0 8 71
d 0.494444 5 6 tcp 1040 ------- 2 1.0 0.0 8 71
d 0.494444 4 6 tcp 1040 ------- 2 1.0 0.0 8 71
d 0.494444 3 6 tcp 1040 ------- 2 1.0 0.0 8 71
d 0.494444 2 6 tcp 1040 ------- 2 1.0 0.0 8 71
+ 0.494856 2 6 tcp 1040 ------- 3 2.0 0.1 9 82
+ 0.494856 2 6 tcp 1040 ------- 3 2.0 0.1 10 83
- 0.494856 2 6 tcp 1040 ------- 3 2.0 0.1 8 73
d 0.49486 5 6 tcp 1040 ------- 3 2.0 0.1 8 73
d 0.49486 4 6 tcp 1040 ------- 3 2.0 0.1 8 73
d 0.49486 3 6 tcp 1040 ------- 3 2.0 0.1 8 73
d 0.49486 1 6 tcp 1040 ------- 3 2.0 0.1 8 73
+ 0.495272 3 6 tcp 1040 ------- 1 3.0 0.2 9 84
+ 0.495272 3 6 tcp 1040 ------- 1 3.0 0.2 10 85
- 0.495272 3 6 tcp 1040 ------- 1 3.0 0.2 8 75
d 0.495276 5 6 tcp 1040 ------- 1 3.0 0.2 8 75
d 0.495276 4 6 tcp 1040 ------- 1 3.0 0.2 8 75
d 0.495276 2 6 tcp 1040 ------- 1 3.0 0.2 8 75
d 0.495276 1 6 tcp 1040 ------- 1 3.0 0.2 8 75
+ 0.495688 4 6 tcp 1040 ------- 2 4.0 0.3 9 86