+ 0.1 1 0 tcp 40 ------- 2 1.0 0.0 0 0
- 0.1 1 0 tcp 40 ------- 2 1.0 0.0 0 0
h 0.1 2 6 tcp 40 ------- 3 2.0 0.1 0 1
h 0.1 3 6 tcp 40 ------- 1 3.0 0.2 0 2
h 0.1 4 6 tcp 40 ------- 2 4.0 0.3 0 3
h 0.1 5 6 tcp 40 ------- 3 5.0 0.4 0 4
+ 0.13 2 6 tcp 40 ------- 3 2.0 0.1 0 1
- 0.13 2 6 tcp 40 ------- 3 2.0 0.1 0 1
+ 0.13 3 6 tcp 40 ------- 1 3.0 0.2 0 2
- 0.13 3 6 tcp 40 ------- 1 3.0 0.2 0 2
+ 0.13 4 6 tcp 40 ------- 2 4.0 0.3 0 3
- 0.13 4 6 tcp 40 ------- 2 4.0 0.3 0 3
+ 0.13 5 6 tcp 40 ------- 3 5.0 0.4 0 4
- 0.13 5 6 tcp 40 ------- 3 5.0 0.4 0 4
d 0.130004 5 6 tcp 40 ------- 3 2.0 0.1 0 1
d 0.130004 4 6 tcp 40 ------- 3 2.0 0.1 0 1
d 0.130004 3 6 tcp 40 ------- 3 2.0 0.1 0 1
d 0.130004 1 6 tcp 40 ------- 3 2.0 0.1 0 1
d 0.130004 5 6 tcp 40 ------- 1 3.0 0.2 0 2
d 0.130004 4 6 tcp 40 ------- 1 3.0 0.2 0 2
d 0.130004 2 6 tcp 40 ------- 1 3.0 0.2 0 2
d 0.130004 1 6 tcp 40 ------- 1 3.0 0.2 0 2
d 0.130004 5 6 tcp 40 ------- 2 4.0 0.3 0 3
d 0.130004 3 6 tcp 40 ------- 2 4.0 0.3 0 3
d 0.130004 2 6 tcp 40 ------- 2 4.0 0.3 0 3
d 0.130004 1 6 tcp 40 ------- 2 4.0 0.3 0 3
d 0.130004 4 6 tcp 40 ------- 3 5.0 0.4 0 4
d 0.130004 3 6 tcp 40 ------- 3 5.0 0.4 0 4
d 0.130004 2 6 tcp 40 ------- 3 5.0 0.4 0 4
d 0.130004 1 6 tcp 40 ------- 3 5.0 0.4 0 4
r 0.13016 1 0 tcp 40 ------- 2 1.0 0.0 0 0
+ 0.13016 0 1 ack 40 ------- 2 0.0 1.0 0 5
- 0.13016 0 1 ack 40 ------- 2 0.0 1.0 0 5
r 0.160004 6 0 tcp 40 ------- 3 2.0 0.1 0 1
h 0.160004 0 6 ack 40 ------- 3 0.1 2.0 0 6
r 0.160004 6 0 tcp 40 ------- 1 3.0 0.2 0 2
h 0.160004 0 6 ack 40 ------- 1 0.2 3.0 0 7
r 0.160004 6 0 tcp 40 ------- 2 4.0 0.3 0 3
h 0.160004 0 6 ack 40 ------- 2 0.3 4.0 0 8
r 0.160004 6 0 tcp 40 ------- 3 5.0 0.4 0 4
h 0.160004 0 6 ack 40 ------- 3 0.4 5.0 0 9
r 0.16032 0 1 ack 40 ------- 2 0.0 1.0 0 5
+ 0.16032 1 0 tcp 1040 ------- 2 1.0 0.0 1 10
- 0.16032 1 0 tcp 1040 ------- 2 1.0 0.0 1 10
+ 0.16032 1 0 tcp 1040 ------- 2 1.0 0.0 2 11
- 0.16448 1 0 tcp 1040 ------- 2 1.0 0.0 2 11
+ 0.190004 0 6 ack 40 ------- 3 0.1 2.0 0 6
- 0.190004 0 6 ack 40 ------- 3 0.1 2.0 0 6
+ 0.190004 0 6 ack 40 ------- 1 0.2 3.0 0 7
+ 0.190004 0 6 ack 40 ------- 2 0.3 4.0 0 8
+ 0.190004 0 6 ack 40 ------- 3 0.4 5.0 0 9
d 0.190008 5 6 ack 40 ------- 3 0.1 2.0 0 6
d 0.190008 4 6 ack 40 ------- 3 0.1 2.0 0 6
d 0.190008 3 6 ack 40 ------- 3 0.1 2.0 0 6
d 0.190008 1 6 ack 40 ------- 3 0.1 2.0 0 6
- 0.19042 0 6 ack 40 ------- 1 0.2 3.0 0 7
d 0.190424 5 6 ack 40 ------- 1 0.2 3.0 0 7
d 0.190424 4 6 ack 40 ------- 1 0.2 3.0 0 7
d 0.190424 2 6 ack 40 ------- 1 0.2 3.0 0 7
d 0.190424 1 6 ack 40 ------- 1 0.2 3.0 0 7
- 0.190836 0 6 ack 40 ------- 2 0.3 4.0 0 8
d 0.19084 5 6 ack 40 ------- 2 0.3 4.0 0 8
d 0.19084 3 6 ack 40 ------- 2 0.3 4.0 0 8
d 0.19084 2 6 ack 40 ------- 2 0.3 4.0 0 8
d 0.19084 1 6 ack 40 ------- 2 0.3 4.0 0 8
- 0.191252 0 6 ack 40 ------- 3 0.4 5.0 0 9
d 0.191256 4 6 ack 40 ------- 3 0.4 5.0 0 9
d 0.191256 3 6 ack 40 ------- 3 0.4 5.0 0 9
d 0.191256 2 6 ack 40 ------- 3 0.4 5.0 0 9
d 0.191256 1 6 ack 40 ------- 3 0.4 5.0 0 9
r 0.19448 1 0 tcp 1040 ------- 2 1.0 0.0 1 10
+ 0.19448 0 1 ack 40 ------- 2 0.0 1.0 1 12
- 0.19448 0 1 ack 40 ------- 2 0.0 1.0 1 12
r 0.19864 1 0 tcp 1040 ------- 2 1.0 0.0 2 11
+ 0.19864 0 1 ack 40 ------- 2 0.0 1.0 2 13
- 0.19864 0 1 ack 40 ------- 2 0.0 1.0 2 13
r 0.220008 6 2 ack 40 ------- 3 0.1 2.0 0 6
h 0.220008 2 6 tcp 1040 ------- 3 2.0 0.1 1 14
h 0.220008 2 6 tcp 1040 ------- 3 2.0 0.1 2 15
r 0.220424 6 3 ack 40 ------- 1 0.2 3.0 0 7
h 0.220424 3 6 tcp 1040 ------- 1 3.0 0.2 1 16
h 0.220424 3 6 tcp 1040 ------- 1 3.0 0.2 2 17
r 0.22084 6 4 ack 40 ------- 2 0.3 4.0 0 8
h 0.22084 4 6 tcp 1040 ------- 2 4.0 0.3 1 18
h 0.22084 4 6 tcp 1040 ------- 2 4.0 0.3 2 19
r 0.221256 6 5 ack 40 ------- 3 0.4 5.0 0 9
h 0.221256 5 6 tcp 1040 ------- 3 5.0 0.4 1 20
h 0.221256 5 6 tcp 1040 ------- 3 5.0 0.4 2 21
r 0.22464 0 1 ack 40 ------- 2 0.0 1.0 1 12
+ 0.22464 1 0 tcp 1040 ------- 2 1.0 0.0 3 22
- 0.22464 1 0 tcp 1040 ------- 2 1.0 0.0 3 22
+ 0.22464 1 0 tcp 1040 ------- 2 1.0 0.0 4 23
r 0.2288 0 1 ack 40 ------- 2 0.0 1.0 2 13
+ 0.2288 1 0 tcp 1040 ------- 2 1.0 0.0 5 24
+ 0.2288 1 0 tcp 1040 ------- 2 1.0 0.0 6 25
- 0.2288 1 0 tcp 1040 ------- 2 1.0 0.0 4 23
- 0.23296 1 0 tcp 1040 ------- 2 1.0 0.0 5 24
- 0.23712 1 0 tcp 1040 ------- 2 1.0 0.0 6 25
+ 0.250008 2 6 tcp 1040 ------- 3 2.0 0.1 1 14
- 0.250008 2 6 tcp 1040 ------- 3 2.0 0.1 1 14
+ 0.250008 2 6 tcp 1040 ------- 3 2.0 0.1 2 15
d 0.250012 5 6 tcp 1040 ------- 3 2.0 0.1 1 14
d 0.250012 4 6 tcp 1040 ------- 3 2.0 0.1 1 14
d 0.250012 3 6 tcp 1040 ------- 3 2.0 0.1 1 14
d 0.250012 1 6 tcp 1040 ------- 3 2.0 0.1 1 14
+ 0.250424 3 6 tcp 1040 ------- 1 3.0 0.2 1 16
- 0.250424 3 6 tcp 1040 ------- 1 3.0 0.2 1 16
+ 0.250424 3 6 tcp 1040 ------- 1 3.0 0.2 2 17
d 0.250428 5 6 tcp 1040 ------- 1 3.0 0.2 1 16
d 0.250428 4 6 tcp 1040 ------- 1 3.0 0.2 1 16
d 0.250428 2 6 tcp 1040 ------- 1 3.0 0.2 1 16
d 0.250428 1 6 tcp 1040 ------- 1 3.0 0.2 1 16
+ 0.25084 4 6 tcp 1040 ------- 2 4.0 0.3 1 18
- 0.25084 4 6 tcp 1040 ------- 2 4.0 0.3 1 18
+ 0.25084 4 6 tcp 1040 ------- 2 4.0 0.3 2 19
d 0.250844 5 6 tcp 1040 ------- 2 4.0 0.3 1 18
d 0.250844 3 6 tcp 1040 ------- 2 4.0 0.3 1 18
d 0.250844 2 6 tcp 1040 ------- 2 4.0 0.3 1 18
d 0.250844 1 6 tcp 1040 ------- 2 4.0 0.3 1 18
+ 0.251256 5 6 tcp 1040 ------- 3 5.0 0.4 1 20
- 0.251256 5 6 tcp 1040 ------- 3 5.0 0.4 1 20
+ 0.251256 5 6 tcp 1040 ------- 3 5.0 0.4 2 21
d 0.25126 4 6 tcp 1040 ------- 3 5.0 0.4 1 20
d 0.25126 3 6 tcp 1040 ------- 3 5.0 0.4 1 20
d 0.25126 2 6 tcp 1040 ------- 3 5.0 0.4 1 20
d 0.25126 1 6 tcp 1040 ------- 3 5.0 0.4 1 20
- 0.254424 2 6 tcp 1040 ------- 3 2.0 0.1 2 15
d 0.254428 5 6 tcp 1040 ------- 3 2.0 0.1 2 15
d 0.254428 4 6 tcp 1040 ------- 3 2.0 0.1 2 15
d 0.254428 3 6 tcp 1040 ------- 3 2.0 0.1 2 15
d 0.254428 1 6 tcp 1040 ------- 3 2.0 0.1 2 15
- 0.25484 3 6 tcp 1040 ------- 1 3.0 0.2 2 17
d 0.254844 5 6 tcp 1040 ------- 1 3.0 0.2 2 17
d 0.254844 4 6 tcp 1040 ------- 1 3.0 0.2 2 17
d 0.254844 2 6 tcp 1040 ------- 1 3.0 0.2 2 17
d 0.254844 1 6 tcp 1040 ------- 1 3.0 0.2 2 17
- 0.255256 4 6 tcp 1040 ------- 2 4.0 0.3 2 19
d 0.25526 5 6 tcp 1040 ------- 2 4.0 0.3 2 19
d 0.25526 3 6 tcp 1040 ------- 2 4.0 0.3 2 19
d 0.25526 2 6 tcp 1040 ------- 2 4.0 0.3 2 19
d 0.25526 1 6 tcp 1040 ------- 2 4.0 0.3 2 19
- 0.255672 5 6 tcp 1040 ------- 3 5.0 0.4 2 21
d 0.255676 4 6 tcp 1040 ------- 3 5.0 0.4 2 21
d 0.255676 3 6 tcp 1040 ------- 3 5.0 0.4 2 21
d 0.255676 2 6 tcp 1040 ------- 3 5.0 0.4 2 21
d 0.255676 1 6 tcp 1040 ------- 3 5.0 0.4 2 21
r 0.2588 1 0 tcp 1040 ------- 2 1.0 0.0 3 22
+ 0.2588 0 1 ack 40 ------- 2 0.0 1.0 3 26
- 0.2588 0 1 ack 40 ------- 2 0.0 1.0 3 26
r 0.26296 1 0 tcp 1040 ------- 2 1.0 0.0 4 23
+ 0.26296 0 1 ack 40 ------- 2 0.0 1.0 4 27
- 0.26296 0 1 ack 40 ------- 2 0.0 1.0 4 27
r 0.26712 1 0 tcp 1040 ------- 2 1.0 0.0 5 24
+ 0.26712 0 1 ack 40 ------- 2 0.0 1.0 5 28
- 0.26712 0 1 ack 40 ------- 2 0.0 1.0 5 28
r 0.27128 1 0 tcp 1040 ------- 2 1.0 0.0 6 25
+ 0.27128 0 1 ack 40 ------- 2 0.0 1.0 6 29
- 0.27128 0 1 ack 40 ------- 2 0.0 1.0 6 29
r 0.280012 6 0 tcp 1040 ------- 3 2.0 0.1 1 14
h 0.280012 0 6 ack 40 ------- 3 0.1 2.0 1 30
r 0.280428 6 0 tcp 1040 ------- 1 3.0 0.2 1 16
h 0.280428 0 6 ack 40 ------- 1 0.2 3.0 1 31
r 0.280844 6 0 tcp 1040 ------- 2 4.0 0.3 1 18
h 0.280844 0 6 ack 40 ------- 2 0.3 4.0 1 32
r 0.28126 6 0 tcp 1040 ------- 3 5.0 0.4 1 20
h 0.28126 0 6 ack 40 ------- 3 0.4 5.0 1 33
r 0.284428 6 0 tcp 1040 ------- 3 2.0 0.1 2 15
h 0.284428 0 6 ack 40 ------- 3 0.1 2.0 2 34
r 0.284844 6 0 tcp 1040 ------- 1 3.0 0.2 2 17
h 0.284844 0 6 ack 40 ------- 1 0.2 3.0 2 35
r 0.28526 6 0 tcp 1040 ------- 2 4.0 0.3 2 19
h 0.28526 0 6 ack 40 ------- 2 0.3 4.0 2 36
r 0.285676 6 0 tcp 1040 ------- 3 5.0 0.4 2 21
h 0.285676 0 6 ack 40 ------- 3 0.4 5.0 2 37
r 0.28896 0 1 ack 40 ------- 2 0.0 1.0 3 26
+ 0.28896 1 0 tcp 1040 ------- 2 1.0 0.0 7 38
- 0.28896 1 0 tcp 1040 ------- 2 1.0 0.0 7 38
+ 0.28896 1 0 tcp 1040 ------- 2 1.0 0.0 8 39
r 0.29312 0 1 ack 40 ------- 2 0.0 1.0 4 27
+ 0.29312 1 0 tcp 1040 ------- 2 1.0 0.0 9 40
+ 0.29312 1 0 tcp 1040 ------- 2 1.0 0.0 10 41
- 0.29312 1 0 tcp 1040 ------- 2 1.0 0.0 8 39
r 0.29728 0 1 ack 40 ------- 2 0.0 1.0 5 28
+ 0.29728 1 0 tcp 1040 ------- 2 1.0 0.0 11 42
+ 0.29728 1 0 tcp 1040 ------- 2 1.0 0.0 12 43
- 0.29728 1 0 tcp 1040 ------- 2 1.0 0.0 9 40
r 0.30144 0 1 ack 40 ------- 2 0.0 1.0 6 29
+ 0.30144 1 0 tcp 1040 ------- 2 1.0 0.0 13 44
+ 0.30144 1 0 tcp 1040 ------- 2 1.0 0.0 14 45
- 0.30144 1 0 tcp 1040 ------- 2 1.0 0.0 10 41
- 0.3056 1 0 tcp 1040 ------- 2 1.0 0.0 11 42
- 0.30976 1 0 tcp 1040 ------- 2 1.0 0.0 12 43
+ 0.310012 0 6 ack 40 ------- 3 0.1 2.0 1 30
- 0.310012 0 6 ack 40 ------- 3 0.1 2.0 1 30
d 0.310016 5 6 ack 40 ------- 3 0.1 2.0 1 30
d 0.310016 4 6 ack 40 ------- 3 0.1 2.0 1 30
d 0.310016 3 6 ack 40 ------- 3 0.1 2.0 1 30
d 0.310016 1 6 ack 40 ------- 3 0.1 2.0 1 30
+ 0.310428 0 6 ack 40 ------- 1 0.2 3.0 1 31
- 0.310428 0 6 ack 40 ------- 1 0.2 3.0 1 31
d 0.310432 5 6 ack 40 ------- 1 0.2 3.0 1 31
d 0.310432 4 6 ack 40 ------- 1 0.2 3.0 1 31
d 0.310432 2 6 ack 40 ------- 1 0.2 3.0 1 31
d 0.310432 1 6 ack 40 ------- 1 0.2 3.0 1 31
+ 0.310844 0 6 ack 40 ------- 2 0.3 4.0 1 32
- 0.310844 0 6 ack 40 ------- 2 0.3 4.0 1 32
d 0.310848 5 6 ack 40 ------- 2 0.3 4.0 1 32
d 0.310848 3 6 ack 40 ------- 2 0.3 4.0 1 32
d 0.310848 2 6 ack 40 ------- 2 0.3 4.0 1 32
d 0.310848 1 6 ack 40 ------- 2 0.3 4.0 1 32
+ 0.31126 0 6 ack 40 ------- 3 0.4 5.0 1 33
- 0.31126 0 6 ack 40 ------- 3 0.4 5.0 1 33
d 0.311264 4 6 ack 40 ------- 3 0.4 5.0 1 33
d 0.311264 3 6 ack 40 ------- 3 0.4 5.0 1 33
d 0.311264 2 6 ack 40 ------- 3 0.4 5.0 1 33
d 0.311264 1 6 ack 40 ------- 3 0.4 5.0 1 33
- 0.31392 1 0 tcp 1040 ------- 2 1.0 0.0 13 44
+ 0.314428 0 6 ack 40 ------- 3 0.1 2.0 2 34
- 0.314428 0 6 ack 40 ------- 3 0.1 2.0 2 34
d 0.314432 5 6 ack 40 ------- 3 0.1 2.0 2 34
d 0.314432 4 6 ack 40 ------- 3 0.1 2.0 2 34
d 0.314432 3 6 ack 40 ------- 3 0.1 2.0 2 34
d 0.314432 1 6 ack 40 ------- 3 0.1 2.0 2 34
+ 0.314844 0 6 ack 40 ------- 1 0.2 3.0 2 35
- 0.314844 0 6 ack 40 ------- 1 0.2 3.0 2 35
d 0.314848 5 6 ack 40 ------- 1 0.2 3.0 2 35
d 0.314848 4 6 ack 40 ------- 1 0.2 3.0 2 35
d 0.314848 2 6 ack 40 ------- 1 0.2 3.0 2 35
d 0.314848 1 6 ack 40 ------- 1 0.2 3.0 2 35
+ 0.31526 0 6 ack 40 ------- 2 0.3 4.0 2 36
- 0.31526 0 6 ack 40 ------- 2 0.3 4.0 2 36
d 0.315264 5 6 ack 40 ------- 2 0.3 4.0 2 36
d 0.315264 3 6 ack 40 ------- 2 0.3 4.0 2 36
d 0.315264 2 6 ack 40 ------- 2 0.3 4.0 2 36
d 0.315264 1 6 ack 40 ------- 2 0.3 4.0 2 36
+ 0.315676 0 6 ack 40 ------- 3 0.4 5.0 2 37
- 0.315676 0 6 ack 40 ------- 3 0.4 5.0 2 37
d 0.31568 4 6 ack 40 ------- 3 0.4 5.0 2 37
d 0.31568 3 6 ack 40 ------- 3 0.4 5.0 2 37
d 0.31568 2 6 ack 40 ------- 3 0.4 5.0 2 37
d 0.31568 1 6 ack 40 ------- 3 0.4 5.0 2 37
- 0.31808 1 0 tcp 1040 ------- 2 1.0 0.0 14 45
r 0.32312 1 0 tcp 1040 ------- 2 1.0 0.0 7 38
+ 0.32312 0 1 ack 40 ------- 2 0.0 1.0 7 46
- 0.32312 0 1 ack 40 ------- 2 0.0 1.0 7 46
r 0.32728 1 0 tcp 1040 ------- 2 1.0 0.0 8 39
+ 0.32728 0 1 ack 40 ------- 2 0.0 1.0 8 47
- 0.32728 0 1 ack 40 ------- 2 0.0 1.0 8 47
r 0.33144 1 0 tcp 1040 ------- 2 1.0 0.0 9 40
+ 0.33144 0 1 ack 40 ------- 2 0.0 1.0 9 48
- 0.33144 0 1 ack 40 ------- 2 0.0 1.0 9 48
r 0.3356 1 0 tcp 1040 ------- 2 1.0 0.0 10 41
+ 0.3356 0 1 ack 40 ------- 2 0.0 1.0 10 49
- 0.3356 0 1 ack 40 ------- 2 0.0 1.0 10 49
r 0.33976 1 0 tcp 1040 ------- 2 1.0 0.0 11 42
+ 0.33976 0 1 ack 40 ------- 2 0.0 1.0 11 50
- 0.33976 0 1 ack 40 ------- 2 0.0 1.0 11 50
r 0.340016 6 2 ack 40 ------- 3 0.1 2.0 1 30
h 0.340016 2 6 tcp 1040 ------- 3 2.0 0.1 3 51
h 0.340016 2 6 tcp 1040 ------- 3 2.0 0.1 4 52
r 0.340432 6 3 ack 40 ------- 1 0.2 3.0 1 31
h 0.340432 3 6 tcp 1040 ------- 1 3.0 0.2 3 53
h 0.340432 3 6 tcp 1040 ------- 1 3.0 0.2 4 54
r 0.340848 6 4 ack 40 ------- 2 0.3 4.0 1 32
h 0.340848 4 6 tcp 1040 ------- 2 4.0 0.3 3 55
h 0.340848 4 6 tcp 1040 ------- 2 4.0 0.3 4 56
r 0.341264 6 5 ack 40 ------- 3 0.4 5.0 1 33
h 0.341264 5 6 tcp 1040 ------- 3 5.0 0.4 3 57
h 0.341264 5 6 tcp 1040 ------- 3 5.0 0.4 4 58
r 0.34392 1 0 tcp 1040 ------- 2 1.0 0.0 12 43
+ 0.34392 0 1 ack 40 ------- 2 0.0 1.0 12 59
- 0.34392 0 1 ack 40 ------- 2 0.0 1.0 12 59
r 0.344432 6 2 ack 40 ------- 3 0.1 2.0 2 34
h 0.344432 2 6 tcp 1040 ------- 3 2.0 0.1 5 60
h 0.344432 2 6 tcp 1040 ------- 3 2.0 0.1 6 61
r 0.344848 6 3 ack 40 ------- 1 0.2 3.0 2 35
h 0.344848 3 6 tcp 1040 ------- 1 3.0 0.2 5 62
h 0.344848 3 6 tcp 1040 ------- 1 3.0 0.2 6 63
r 0.345264 6 4 ack 40 ------- 2 0.3 4.0 2 36
h 0.345264 4 6 tcp 1040 ------- 2 4.0 0.3 5 64
h 0.345264 4 6 tcp 1040 ------- 2 4.0 0.3 6 65
r 0.34568 6 5 ack 40 ------- 3 0.4 5.0 2 37
h 0.34568 5 6 tcp 1040 ------- 3 5.0 0.4 5 66
h 0.34568 5 6 tcp 1040 ------- 3 5.0 0.4 6 67
r 0.34808 1 0 tcp 1040 ------- 2 1.0 0.0 13 44
+ 0.34808 0 1 ack 40 ------- 2 0.0 1.0 13 68
- 0.34808 0 1 ack 40 ------- 2 0.0 1.0 13 68
r 0.35224 1 0 tcp 1040 ------- 2 1.0 0.0 14 45
+ 0.35224 0 1 ack 40 ------- 2 0.0 1.0 14 69
- 0.35224 0 1 ack 40 ------- 2 0.0 1.0 14 69
r 0.35328 0 1 ack 40 ------- 2 0.0 1.0 7 46
+ 0.35328 1 0 tcp 1040 ------- 2 1.0 0.0 15 70
- 0.35328 1 0 tcp 1040 ------- 2 1.0 0.0 15 70
+ 0.35328 1 0 tcp 1040 ------- 2 1.0 0.0 16 71
- 0.35744 1 0 tcp 1040 ------- 2 1.0 0.0 16 71
r 0.35744 0 1 ack 40 ------- 2 0.0 1.0 8 47
+ 0.35744 1 0 tcp 1040 ------- 2 1.0 0.0 17 72
+ 0.35744 1 0 tcp 1040 ------- 2 1.0 0.0 18 73
r 0.3616 0 1 ack 40 ------- 2 0.0 1.0 9 48
+ 0.3616 1 0 tcp 1040 ------- 2 1.0 0.0 19 74
+ 0.3616 1 0 tcp 1040 ------- 2 1.0 0.0 20 75
- 0.3616 1 0 tcp 1040 ------- 2 1.0 0.0 17 72
- 0.36576 1 0 tcp 1040 ------- 2 1.0 0.0 18 73
r 0.36576 0 1 ack 40 ------- 2 0.0 1.0 10 49
+ 0.36576 1 0 tcp 1040 ------- 2 1.0 0.0 21 76
+ 0.36576 1 0 tcp 1040 ------- 2 1.0 0.0 22 77
r 0.36992 0 1 ack 40 ------- 2 0.0 1.0 11 50
+ 0.36992 1 0 tcp 1040 ------- 2 1.0 0.0 23 78
+ 0.36992 1 0 tcp 1040 ------- 2 1.0 0.0 24 79
- 0.36992 1 0 tcp 1040 ------- 2 1.0 0.0 19 74
+ 0.370016 2 6 tcp 1040 ------- 3 2.0 0.1 3 51
- 0.370016 2 6 tcp 1040 ------- 3 2.0 0.1 3 51
+ 0.370016 2 6 tcp 1040 ------- 3 2.0 0.1 4 52
d 0.37002 5 6 tcp 1040 ------- 3 2.0 0.1 3 51
d 0.37002 4 6 tcp 1040 ------- 3 2.0 0.1 3 51
d 0.37002 3 6 tcp 1040 ------- 3 2.0 0.1 3 51
d 0.37002 1 6 tcp 1040 ------- 3 2.0 0.1 3 51
+ 0.370432 3 6 tcp 1040 ------- 1 3.0 0.2 3 53
- 0.370432 3 6 tcp 1040 ------- 1 3.0 0.2 3 53
+ 0.370432 3 6 tcp 1040 ------- 1 3.0 0.2 4 54
d 0.370436 5 6 tcp 1040 ------- 1 3.0 0.2 3 53
d 0.370436 4 6 tcp 1040 ------- 1 3.0 0.2 3 53
d 0.370436 2 6 tcp 1040 ------- 1 3.0 0.2 3 53
d 0.370436 1 6 tcp 1040 ------- 1 3.0 0.2 3 53
+ 0.370848 4 6 tcp 1040 ------- 2 4.0 0.3 3 55
- 0.370848 4 6 tcp 1040 ------- 2 4.0 0.3 3 55
+ 0.370848 4 6 tcp 1040 ------- 2 4.0 0.3 4 56
d 0.370852 5 6 tcp 1040 ------- 2 4.0 0.3 3 55
d 0.370852 3 6 tcp 1040 ------- 2 4.0 0.3 3 55
d 0.370852 2 6 tcp 1040 ------- 2 4.0 0.3 3 55
d 0.370852 1 6 tcp 1040 ------- 2 4.0 0.3 3 55
+ 0.371264 5 6 tcp 1040 ------- 3 5.0 0.4 3 57
- 0.371264 5 6 tcp 1040 ------- 3 5.0 0.4 3 57
+ 0.371264 5 6 tcp 1040 ------- 3 5.0 0.4 4 58
d 0.371268 4 6 tcp 1040 ------- 3 5.0 0.4 3 57
d 0.371268 3 6 tcp 1040 ------- 3 5.0 0.4 3 57
d 0.371268 2 6 tcp 1040 ------- 3 5.0 0.4 3 57
d 0.371268 1 6 tcp 1040 ------- 3 5.0 0.4 3 57
- 0.37408 1 0 tcp 1040 ------- 2 1.0 0.0 20 75
r 0.37408 0 1 ack 40 ------- 2 0.0 1.0 12 59
+ 0.37408 1 0 tcp 1040 ------- 2 1.0 0.0 25 80
+ 0.37408 1 0 tcp 1040 ------- 2 1.0 0.0 26 81
+ 0.374432 2 6 tcp 1040 ------- 3 2.0 0.1 5 60
+ 0.374432 2 6 tcp 1040 ------- 3 2.0 0.1 6 61
- 0.374432 2 6 tcp 1040 ------- 3 2.0 0.1 4 52
d 0.374436 5 6 tcp 1040 ------- 3 2.0 0.1 4 52
d 0.374436 4 6 tcp 1040 ------- 3 2.0 0.1 4 52
d 0.374436 3 6 tcp 1040 ------- 3 2.0 0.1 4 52
d 0.374436 1 6 tcp 1040 ------- 3 2.0 0.1 4 52
+ 0.374848 3 6 tcp 1040 ------- 1 3.0 0.2 5 62
+ 0.374848 3 6 tcp 1040 ------- 1 3.0 0.2 6 63
- 0.374848 3 6 tcp 1040 ------- 1 3.0 0.2 4 54
d 0.374852 5 6 tcp 1040 ------- 1 3.0 0.2 4 54
d 0.374852 4 6 tcp 1040 ------- 1 3.0 0.2 4 54
d 0.374852 2 6 tcp 1040 ------- 1 3.0 0.2 4 54
d 0.374852 1 6 tcp 1040 ------- 1 3.0 0.2 4 54
+ 0.375264 4 6 tcp 1040 ------- 2 4.0 0.3 5 64
+ 0.375264 4 6 tcp 1040 ------- 2 4.0 0.3 6 65
- 0.375264 4 6 tcp 1040 ------- 2 4.0 0.3 4 56
d 0.375268 5 6 tcp 1040 ------- 2 4.0 0.3 4 56
d 0.375268 3 6 tcp 1040 ------- 2 4.0 0.3 4 56
d 0.375268 2 6 tcp 1040 ------- 2 4.0 0.3 4 56
d 0.375268 1 6 tcp 1040 ------- 2 4.0 0.3 4 56
+ 0.37568 5 6 tcp 1040 ------- 3 5.0 0.4 5 66
+ 0.37568 5 6 tcp 1040 ------- 3 5.0 0.4 6 67
- 0.37568 5 6 tcp 1040 ------- 3 5.0 0.4 4 58
d 0.375684 4 6 tcp 1040 ------- 3 5.0 0.4 4 58
d 0.375684 3 6 tcp 1040 ------- 3 5.0 0.4 4 58
d 0.375684 2 6 tcp 1040 ------- 3 5.0 0.4 4 58
d 0.375684 1 6 tcp 1040 ------- 3 5.0 0.4 4 58
r 0.37824 0 1 ack 40 ------- 2 0.0 1.0 13 68
+ 0.37824 1 0 tcp 1040 ------- 2 1.0 0.0 27 82
+ 0.37824 1 0 tcp 1040 ------- 2 1.0 0.0 28 83
- 0.37824 1 0 tcp 1040 ------- 2 1.0 0.0 21 76
- 0.378848 2 6 tcp 1040 ------- 3 2.0 0.1 5 60
d 0.378852 5 6 tcp 1040 ------- 3 2.0 0.1 5 60
d 0.378852 4 6 tcp 1040 ------- 3 2.0 0.1 5 60
d 0.378852 3 6 tcp 1040 ------- 3 2.0 0.1 5 60
d 0.378852 1 6 tcp 1040 ------- 3 2.0 0.1 5 60
- 0.379264 3 6 tcp 1040 ------- 1 3.0 0.2 5 62
d 0.379268 5 6 tcp 1040 ------- 1 3.0 0.2 5 62
d 0.379268 4 6 tcp 1040 ------- 1 3.0 0.2 5 62
d 0.379268 2 6 tcp 1040 ------- 1 3.0 0.2 5 62
d 0.379268 1 6 tcp 1040 ------- 1 3.0 0.2 5 62
- 0.37968 4 6 tcp 1040 ------- 2 4.0 0.3 5 64
d 0.379684 5 6 tcp 1040 ------- 2 4.0 0.3 5 64
d 0.379684 3 6 tcp 1040 ------- 2 4.0 0.3 5 64
d 0.379684 2 6 tcp 1040 ------- 2 4.0 0.3 5 64
d 0.379684 1 6 tcp 1040 ------- 2 4.0 0.3 5 64
- 0.380096 5 6 tcp 1040 ------- 3 5.0 0.4 5 66
d 0.3801 4 6 tcp 1040 ------- 3 5.0 0.4 5 66
d 0.3801 3 6 tcp 1040 ------- 3 5.0 0.4 5 66
d 0.3801 2 6 tcp 1040 ------- 3 5.0 0.4 5 66
d 0.3801 1 6 tcp 1040 ------- 3 5.0 0.4 5 66
- 0.3824 1 0 tcp 1040 ------- 2 1.0 0.0 22 77
r 0.3824 0 1 ack 40 ------- 2 0.0 1.0 14 69
+ 0.3824 1 0 tcp 1040 ------- 2 1.0 0.0 29 84
+ 0.3824 1 0 tcp 1040 ------- 2 1.0 0.0 30 85
- 0.383264 2 6 tcp 1040 ------- 3 2.0 0.1 6 61
d 0.383268 5 6 tcp 1040 ------- 3 2.0 0.1 6 61
d 0.383268 4 6 tcp 1040 ------- 3 2.0 0.1 6 61
d 0.383268 3 6 tcp 1040 ------- 3 2.0 0.1 6 61
d 0.383268 1 6 tcp 1040 ------- 3 2.0 0.1 6 61
- 0.38368 3 6 tcp 1040 ------- 1 3.0 0.2 6 63
d 0.383684 5 6 tcp 1040 ------- 1 3.0 0.2 6 63
d 0.383684 4 6 tcp 1040 ------- 1 3.0 0.2 6 63
d 0.383684 2 6 tcp 1040 ------- 1 3.0 0.2 6 63
d 0.383684 1 6 tcp 1040 ------- 1 3.0 0.2 6 63
- 0.384096 4 6 tcp 1040 ------- 2 4.0 0.3 6 65
d 0.3841 5 6 tcp 1040 ------- 2 4.0 0.3 6 65
d 0.3841 3 6 tcp 1040 ------- 2 4.0 0.3 6 65
d 0.3841 2 6 tcp 1040 ------- 2 4.0 0.3 6 65
d 0.3841 1 6 tcp 1040 ------- 2 4.0 0.3 6 65
- 0.384512 5 6 tcp 1040 ------- 3 5.0 0.4 6 67
d 0.384516 4 6 tcp 1040 ------- 3 5.0 0.4 6 67
d 0.384516 3 6 tcp 1040 ------- 3 5.0 0.4 6 67
d 0.384516 2 6 tcp 1040 ------- 3 5.0 0.4 6 67
d 0.384516 1 6 tcp 1040 ------- 3 5.0 0.4 6 67
- 0.38656 1 0 tcp 1040 ------- 2 1.0 0.0 23 78
r 0.38744 1 0 tcp 1040 ------- 2 1.0 0.0 15 70
+ 0.38744 0 1 ack 40 ------- 2 0.0 1.0 15 86
- 0.38744 0 1 ack 40 ------- 2 0.0 1.0 15 86
- 0.39072 1 0 tcp 1040 ------- 2 1.0 0.0 24 79
r 0.3916 1 0 tcp 1040 ------- 2 1.0 0.0 16 71
+ 0.3916 0 1 ack 40 ------- 2 0.0 1.0 16 87
- 0.3916 0 1 ack 40 ------- 2 0.0 1.0 16 87
- 0.39488 1 0 tcp 1040 ------- 2 1.0 0.0 25 80
r 0.39576 1 0 tcp 1040 ------- 2 1.0 0.0 17 72
+ 0.39576 0 1 ack 40 ------- 2 0.0 1.0 17 88
- 0.39576 0 1 ack 40 ------- 2 0.0 1.0 17 88
- 0.39904 1 0 tcp 1040 ------- 2 1.0 0.0 26 81
r 0.39992 1 0 tcp 1040 ------- 2 1.0 0.0 18 73
+ 0.39992 0 1 ack 40 ------- 2 0.0 1.0 18 89
- 0.39992 0 1 ack 40 ------- 2 0.0 1.0 18 89
r 0.40002 6 0 tcp 1040 ------- 3 2.0 0.1 3 51
h 0.40002 0 6 ack 40 ------- 3 0.1 2.0 3 90
r 0.400436 6 0 tcp 1040 ------- 1 3.0 0.2 3 53
h 0.400436 0 6 ack 40 ------- 1 0.2 3.0 3 91
r 0.400852 6 0 tcp 1040 ------- 2 4.0 0.3 3 55
h 0.400852 0 6 ack 40 ------- 2 0.3 4.0 3 92
r 0.401268 6 0 tcp 1040 ------- 3 5.0 0.4 3 57
h 0.401268 0 6 ack 40 ------- 3 0.4 5.0 3 93
- 0.4032 1 0 tcp 1040 ------- 2 1.0 0.0 27 82
r 0.40408 1 0 tcp 1040 ------- 2 1.0 0.0 19 74
+ 0.40408 0 1 ack 40 ------- 2 0.0 1.0 19 94
- 0.40408 0 1 ack 40 ------- 2 0.0 1.0 19 94
r 0.404436 6 0 tcp 1040 ------- 3 2.0 0.1 4 52
h 0.404436 0 6 ack 40 ------- 3 0.1 2.0 4 95
r 0.404852 6 0 tcp 1040 ------- 1 3.0 0.2 4 54
h 0.404852 0 6 ack 40 ------- 1 0.2 3.0 4 96
r 0.405268 6 0 tcp 1040 ------- 2 4.0 0.3 4 56
h 0.405268 0 6 ack 40 ------- 2 0.3 4.0 4 97
r 0.405684 6 0 tcp 1040 ------- 3 5.0 0.4 4 58
h 0.405684 0 6 ack 40 ------- 3 0.4 5.0 4 98
- 0.40736 1 0 tcp 1040 ------- 2 1.0 0.0 28 83
r 0.40824 1 0 tcp 1040 ------- 2 1.0 0.0 20 75
+ 0.40824 0 1 ack 40 ------- 2 0.0 1.0 20 99
- 0.40824 0 1 ack 40 ------- 2 0.0 1.0 20 99
r 0.408852 6 0 tcp 1040 ------- 3 2.0 0.1 5 60
h 0.408852 0 6 ack 40 ------- 3 0.1 2.0 5 100
r 0.409268 6 0 tcp 1040 ------- 1 3.0 0.2 5 62
h 0.409268 0 6 ack 40 ------- 1 0.2 3.0 5 101
r 0.409684 6 0 tcp 1040 ------- 2 4.0 0.3 5 64
h 0.409684 0 6 ack 40 ------- 2 0.3 4.0 5 102
r 0.4101 6 0 tcp 1040 ------- 3 5.0 0.4 5 66
h 0.4101 0 6 ack 40 ------- 3 0.4 5.0 5 103
- 0.41152 1 0 tcp 1040 ------- 2 1.0 0.0 29 84
r 0.4124 1 0 tcp 1040 ------- 2 1.0 0.0 21 76
+ 0.4124 0 1 ack 40 ------- 2 0.0 1.0 21 104
- 0.4124 0 1 ack 40 ------- 2 0.0 1.0 21 104
r 0.413268 6 0 tcp 1040 ------- 3 2.0 0.1 6 61
h 0.413268 0 6 ack 40 ------- 3 0.1 2.0 6 105
r 0.413684 6 0 tcp 1040 ------- 1 3.0 0.2 6 63
h 0.413684 0 6 ack 40 ------- 1 0.2 3.0 6 106
r 0.4141 6 0 tcp 1040 ------- 2 4.0 0.3 6 65
h 0.4141 0 6 ack 40 ------- 2 0.3 4.0 6 107
r 0.414516 6 0 tcp 1040 ------- 3 5.0 0.4 6 67
h 0.414516 0 6 ack 40 ------- 3 0.4 5.0 6 108
- 0.41568 1 0 tcp 1040 ------- 2 1.0 0.0 30 85
r 0.41656 1 0 tcp 1040 ------- 2 1.0 0.0 22 77
+ 0.41656 0 1 ack 40 ------- 2 0.0 1.0 22 109
- 0.41656 0 1 ack 40 ------- 2 0.0 1.0 22 109
r 0.4176 0 1 ack 40 ------- 2 0.0 1.0 15 86
+ 0.4176 1 0 tcp 1040 ------- 2 1.0 0.0 31 110
+ 0.4176 1 0 tcp 1040 ------- 2 1.0 0.0 32 111
- 0.41984 1 0 tcp 1040 ------- 2 1.0 0.0 31 110
r 0.42072 1 0 tcp 1040 ------- 2 1.0 0.0 23 78
+ 0.42072 0 1 ack 40 ------- 2 0.0 1.0 23 112
- 0.42072 0 1 ack 40 ------- 2 0.0 1.0 23 112
r 0.42176 0 1 ack 40 ------- 2 0.0 1.0 16 87
+ 0.42176 1 0 tcp 1040 ------- 2 1.0 0.0 33 113
+ 0.42176 1 0 tcp 1040 ------- 2 1.0 0.0 34 114
- 0.424 1 0 tcp 1040 ------- 2 1.0 0.0 32 111
r 0.42488 1 0 tcp 1040 ------- 2 1.0 0.0 24 79
+ 0.42488 0 1 ack 40 ------- 2 0.0 1.0 24 115
- 0.42488 0 1 ack 40 ------- 2 0.0 1.0 24 115
r 0.42592 0 1 ack 40 ------- 2 0.0 1.0 17 88
+ 0.42592 1 0 tcp 1040 ------- 2 1.0 0.0 35 116
+ 0.42592 1 0 tcp 1040 ------- 2 1.0 0.0 36 117
- 0.42816 1 0 tcp 1040 ------- 2 1.0 0.0 33 113
r 0.42904 1 0 tcp 1040 ------- 2 1.0 0.0 25 80
+ 0.42904 0 1 ack 40 ------- 2 0.0 1.0 25 118
- 0.42904 0 1 ack 40 ------- 2 0.0 1.0 25 118
+ 0.43002 0 6 ack 40 ------- 3 0.1 2.0 3 90
- 0.43002 0 6 ack 40 ------- 3 0.1 2.0 3 90
d 0.430024 5 6 ack 40 ------- 3 0.1 2.0 3 90
d 0.430024 4 6 ack 40 ------- 3 0.1 2.0 3 90
d 0.430024 3 6 ack 40 ------- 3 0.1 2.0 3 90
d 0.430024 1 6 ack 40 ------- 3 0.1 2.0 3 90
r 0.43008 0 1 ack 40 ------- 2 0.0 1.0 18 89
+ 0.43008 1 0 tcp 1040 ------- 2 1.0 0.0 37 119
+ 0.43008 1 0 tcp 1040 ------- 2 1.0 0.0 38 120
+ 0.430436 0 6 ack 40 ------- 1 0.2 3.0 3 91
- 0.430436 0 6 ack 40 ------- 1 0.2 3.0 3 91
d 0.43044 5 6 ack 40 ------- 1 0.2 3.0 3 91
d 0.43044 4 6 ack 40 ------- 1 0.2 3.0 3 91
d 0.43044 2 6 ack 40 ------- 1 0.2 3.0 3 91
d 0.43044 1 6 ack 40 ------- 1 0.2 3.0 3 91
+ 0.430852 0 6 ack 40 ------- 2 0.3 4.0 3 92
- 0.430852 0 6 ack 40 ------- 2 0.3 4.0 3 92
d 0.430856 5 6 ack 40 ------- 2 0.3 4.0 3 92
d 0.430856 3 6 ack 40 ------- 2 0.3 4.0 3 92
d 0.430856 2 6 ack 40 ------- 2 0.3 4.0 3 92
d 0.430856 1 6 ack 40 ------- 2 0.3 4.0 3 92
+ 0.431268 0 6 ack 40 ------- 3 0.4 5.0 3 93
- 0.431268 0 6 ack 40 ------- 3 0.4 5.0 3 93
d 0.431272 4 6 ack 40 ------- 3 0.4 5.0 3 93
d 0.431272 3 6 ack 40 ------- 3 0.4 5.0 3 93
d 0.431272 2 6 ack 40 ------- 3 0.4 5.0 3 93
d 0.431272 1 6 ack 40 ------- 3 0.4 5.0 3 93
- 0.43232 1 0 tcp 1040 ------- 2 1.0 0.0 34 114
r 0.4332 1 0 tcp 1040 ------- 2 1.0 0.0 26 81
+ 0.4332 0 1 ack 40 ------- 2 0.0 1.0 26 121
- 0.4332 0 1 ack 40 ------- 2 0.0 1.0 26 121
r 0.43424 0 1 ack 40 ------- 2 0.0 1.0 19 94
+ 0.43424 1 0 tcp 1040 ------- 2 1.0 0.0 39 122
+ 0.434436 0 6 ack 40 ------- 3 0.1 2.0 4 95
- 0.434436 0 6 ack 40 ------- 3 0.1 2.0 4 95
d 0.43444 5 6 ack 40 ------- 3 0.1 2.0 4 95
d 0.43444 4 6 ack 40 ------- 3 0.1 2.0 4 95
d 0.43444 3 6 ack 40 ------- 3 0.1 2.0 4 95
d 0.43444 1 6 ack 40 ------- 3 0.1 2.0 4 95
+ 0.434852 0 6 ack 40 ------- 1 0.2 3.0 4 96
- 0.434852 0 6 ack 40 ------- 1 0.2 3.0 4 96
d 0.434856 5 6 ack 40 ------- 1 0.2 3.0 4 96
d 0.434856 4 6 ack 40 ------- 1 0.2 3.0 4 96
d 0.434856 2 6 ack 40 ------- 1 0.2 3.0 4 96
d 0.434856 1 6 ack 40 ------- 1 0.2 3.0 4 96
+ 0.435268 0 6 ack 40 ------- 2 0.3 4.0 4 97
- 0.435268 0 6 ack 40 ------- 2 0.3 4.0 4 97
d 0.435272 5 6 ack 40 ------- 2 0.3 4.0 4 97
d 0.435272 3 6 ack 40 ------- 2 0.3 4.0 4 97
d 0.435272 2 6 ack 40 ------- 2 0.3 4.0 4 97
d 0.435272 1 6 ack 40 ------- 2 0.3 4.0 4 97
+ 0.435684 0 6 ack 40 ------- 3 0.4 5.0 4 98
- 0.435684 0 6 ack 40 ------- 3 0.4 5.0 4 98
d 0.435688 4 6 ack 40 ------- 3 0.4 5.0 4 98
d 0.435688 3 6 ack 40 ------- 3 0.4 5.0 4 98
d 0.435688 2 6 ack 40 ------- 3 0.4 5.0 4 98
d 0.435688 1 6 ack 40 ------- 3 0.4 5.0 4 98
- 0.43648 1 0 tcp 1040 ------- 2 1.0 0.0 35 116
r 0.43736 1 0 tcp 1040 ------- 2 1.0 0.0 27 82
+ 0.43736 0 1 ack 40 ------- 2 0.0 1.0 27 123
- 0.43736 0 1 ack 40 ------- 2 0.0 1.0 27 123
r 0.4384 0 1 ack 40 ------- 2 0.0 1.0 20 99
+ 0.4384 1 0 tcp 1040 ------- 2 1.0 0.0 40 124
+ 0.438852 0 6 ack 40 ------- 3 0.1 2.0 5 100
- 0.438852 0 6 ack 40 ------- 3 0.1 2.0 5 100
d 0.438856 5 6 ack 40 ------- 3 0.1 2.0 5 100
d 0.438856 4 6 ack 40 ------- 3 0.1 2.0 5 100
d 0.438856 3 6 ack 40 ------- 3 0.1 2.0 5 100
d 0.438856 1 6 ack 40 ------- 3 0.1 2.0 5 100
+ 0.439268 0 6 ack 40 ------- 1 0.2 3.0 5 101
- 0.439268 0 6 ack 40 ------- 1 0.2 3.0 5 101
d 0.439272 5 6 ack 40 ------- 1 0.2 3.0 5 101
d 0.439272 4 6 ack 40 ------- 1 0.2 3.0 5 101
d 0.439272 2 6 ack 40 ------- 1 0.2 3.0 5 101
d 0.439272 1 6 ack 40 ------- 1 0.2 3.0 5 101
+ 0.439684 0 6 ack 40 ------- 2 0.3 4.0 5 102
- 0.439684 0 6 ack 40 ------- 2 0.3 4.0 5 102
d 0.439688 5 6 ack 40 ------- 2 0.3 4.0 5 102
d 0.439688 3 6 ack 40 ------- 2 0.3 4.0 5 102
d 0.439688 2 6 ack 40 ------- 2 0.3 4.0 5 102
d 0.439688 1 6 ack 40 ------- 2 0.3 4.0 5 102
+ 0.4401 0 6 ack 40 ------- 3 0.4 5.0 5 103
- 0.4401 0 6 ack 40 ------- 3 0.4 5.0 5 103
d 0.440104 4 6 ack 40 ------- 3 0.4 5.0 5 103
d 0.440104 3 6 ack 40 ------- 3 0.4 5.0 5 103
d 0.440104 2 6 ack 40 ------- 3 0.4 5.0 5 103
d 0.440104 1 6 ack 40 ------- 3 0.4 5.0 5 103
- 0.44064 1 0 tcp 1040 ------- 2 1.0 0.0 36 117
r 0.44152 1 0 tcp 1040 ------- 2 1.0 0.0 28 83
+ 0.44152 0 1 ack 40 ------- 2 0.0 1.0 28 125
- 0.44152 0 1 ack 40 ------- 2 0.0 1.0 28 125
r 0.44256 0 1 ack 40 ------- 2 0.0 1.0 21 104
+ 0.44256 1 0 tcp 1040 ------- 2 1.0 0.0 41 126
+ 0.443268 0 6 ack 40 ------- 3 0.1 2.0 6 105
- 0.443268 0 6 ack 40 ------- 3 0.1 2.0 6 105
d 0.443272 5 6 ack 40 ------- 3 0.1 2.0 6 105
d 0.443272 4 6 ack 40 ------- 3 0.1 2.0 6 105
d 0.443272 3 6 ack 40 ------- 3 0.1 2.0 6 105
d 0.443272 1 6 ack 40 ------- 3 0.1 2.0 6 105
+ 0.443684 0 6 ack 40 ------- 1 0.2 3.0 6 106
- 0.443684 0 6 ack 40 ------- 1 0.2 3.0 6 106
d 0.443688 5 6 ack 40 ------- 1 0.2 3.0 6 106
d 0.443688 4 6 ack 40 ------- 1 0.2 3.0 6 106
d 0.443688 2 6 ack 40 ------- 1 0.2 3.0 6 106
d 0.443688 1 6 ack 40 ------- 1 0.2 3.0 6 106
+ 0.4441 0 6 ack 40 ------- 2 0.3 4.0 6 107
- 0.4441 0 6 ack 40 ------- 2 0.3 4.0 6 107
d 0.444104 5 6 ack 40 ------- 2 0.3 4.0 6 107
d 0.444104 3 6 ack 40 ------- 2 0.3 4.0 6 107
d 0.444104 2 6 ack 40 ------- 2 0.3 4.0 6 107
d 0.444104 1 6 ack 40 ------- 2 0.3 4.0 6 107
+ 0.444516 0 6 ack 40 ------- 3 0.4 5.0 6 108
- 0.444516 0 6 ack 40 ------- 3 0.4 5.0 6 108
d 0.44452 4 6 ack 40 ------- 3 0.4 5.0 6 108
d 0.44452 3 6 ack 40 ------- 3 0.4 5.0 6 108
d 0.44452 2 6 ack 40 ------- 3 0.4 5.0 6 108
d 0.44452 1 6 ack 40 ------- 3 0.4 5.0 6 108
- 0.4448 1 0 tcp 1040 ------- 2 1.0 0.0 37 119
r 0.44568 1 0 tcp 1040 ------- 2 1.0 0.0 29 84
+ 0.44568 0 1 ack 40 ------- 2 0.0 1.0 29 127
- 0.44568 0 1 ack 40 ------- 2 0.0 1.0 29 127
r 0.44672 0 1 ack 40 ------- 2 0.0 1.0 22 109
+ 0.44672 1 0 tcp 1040 ------- 2 1.0 0.0 42 128
- 0.44896 1 0 tcp 1040 ------- 2 1.0 0.0 38 120
r 0.44984 1 0 tcp 1040 ------- 2 1.0 0.0 30 85
+ 0.44984 0 1 ack 40 ------- 2 0.0 1.0 30 129
- 0.44984 0 1 ack 40 ------- 2 0.0 1.0 30 129
r 0.45088 0 1 ack 40 ------- 2 0.0 1.0 23 112
+ 0.45088 1 0 tcp 1040 ------- 2 1.0 0.0 43 130
- 0.45312 1 0 tcp 1040 ------- 2 1.0 0.0 39 122
r 0.454 1 0 tcp 1040 ------- 2 1.0 0.0 31 110
+ 0.454 0 1 ack 40 ------- 2 0.0 1.0 31 131
- 0.454 0 1 ack 40 ------- 2 0.0 1.0 31 131
r 0.45504 0 1 ack 40 ------- 2 0.0 1.0 24 115
+ 0.45504 1 0 tcp 1040 ------- 2 1.0 0.0 44 132
- 0.45728 1 0 tcp 1040 ------- 2 1.0 0.0 40 124
r 0.45816 1 0 tcp 1040 ------- 2 1.0 0.0 32 111
+ 0.45816 0 1 ack 40 ------- 2 0.0 1.0 32 133
- 0.45816 0 1 ack 40 ------- 2 0.0 1.0 32 133
r 0.4592 0 1 ack 40 ------- 2 0.0 1.0 25 118
+ 0.4592 1 0 tcp 1040 ------- 2 1.0 0.0 45 134
r 0.460024 6 2 ack 40 ------- 3 0.1 2.0 3 90
h 0.460024 2 6 tcp 1040 ------- 3 2.0 0.1 7 135
h 0.460024 2 6 tcp 1040 ------- 3 2.0 0.1 8 136
r 0.46044 6 3 ack 40 ------- 1 0.2 3.0 3 91
h 0.46044 3 6 tcp 1040 ------- 1 3.0 0.2 7 137
h 0.46044 3 6 tcp 1040 ------- 1 3.0 0.2 8 138
r 0.460856 6 4 ack 40 ------- 2 0.3 4.0 3 92
h 0.460856 4 6 tcp 1040 ------- 2 4.0 0.3 7 139
h 0.460856 4 6 tcp 1040 ------- 2 4.0 0.3 8 140
r 0.461272 6 5 ack 40 ------- 3 0.4 5.0 3 93
h 0.461272 5 6 tcp 1040 ------- 3 5.0 0.4 7 141
h 0.461272 5 6 tcp 1040 ------- 3 5.0 0.4 8 142
- 0.46144 1 0 tcp 1040 ------- 2 1.0 0.0 41 126