h 0.1 1 21 cbr 1000 ------- 2 1.0 0.0 0 0
h 0.1 1 21 cbr 24 ------- 2 1.0 0.0 1 1
h 0.1 2 21 cbr 1000 ------- 3 2.0 0.1 0 2
h 0.1 2 21 cbr 24 ------- 3 2.0 0.1 1 3
h 0.1 3 21 cbr 1000 ------- 1 3.0 0.2 0 4
h 0.1 3 21 cbr 24 ------- 1 3.0 0.2 1 5
h 0.1 4 21 cbr 1000 ------- 2 4.0 0.3 0 6
h 0.1 4 21 cbr 24 ------- 2 4.0 0.3 1 7
h 0.1 5 21 cbr 1000 ------- 3 5.0 0.4 0 8
h 0.1 5 21 cbr 24 ------- 3 5.0 0.4 1 9
h 0.1 6 21 cbr 1000 ------- 1 6.0 0.5 0 10
h 0.1 6 21 cbr 24 ------- 1 6.0 0.5 1 11
h 0.1 7 21 cbr 1000 ------- 2 7.0 0.6 0 12
h 0.1 7 21 cbr 24 ------- 2 7.0 0.6 1 13
h 0.1 8 21 cbr 1000 ------- 3 8.0 0.7 0 14
h 0.1 8 21 cbr 24 ------- 3 8.0 0.7 1 15
h 0.1 9 21 cbr 1000 ------- 1 9.0 0.8 0 16
h 0.1 9 21 cbr 24 ------- 1 9.0 0.8 1 17
h 0.1 10 21 cbr 1000 ------- 2 10.0 0.9 0 18
h 0.1 10 21 cbr 24 ------- 2 10.0 0.9 1 19
h 0.1 11 21 cbr 1000 ------- 3 11.0 0.10 0 20
h 0.1 11 21 cbr 24 ------- 3 11.0 0.10 1 21
h 0.1 12 21 cbr 1000 ------- 1 12.0 0.11 0 22
h 0.1 12 21 cbr 24 ------- 1 12.0 0.11 1 23
h 0.1 13 21 cbr 1000 ------- 2 13.0 0.12 0 24
h 0.1 13 21 cbr 24 ------- 2 13.0 0.12 1 25
h 0.1 14 21 cbr 1000 ------- 3 14.0 0.13 0 26
h 0.1 14 21 cbr 24 ------- 3 14.0 0.13 1 27
h 0.1 15 21 cbr 1000 ------- 1 15.0 0.14 0 28
h 0.1 15 21 cbr 24 ------- 1 15.0 0.14 1 29
h 0.1 16 21 cbr 1000 ------- 2 16.0 0.15 0 30
h 0.1 16 21 cbr 24 ------- 2 16.0 0.15 1 31
h 0.1 17 21 cbr 1000 ------- 3 17.0 0.16 0 32
h 0.1 17 21 cbr 24 ------- 3 17.0 0.16 1 33
h 0.1 18 21 cbr 1000 ------- 1 18.0 0.17 0 34
h 0.1 18 21 cbr 24 ------- 1 18.0 0.17 1 35
h 0.1 19 21 cbr 1000 ------- 2 19.0 0.18 0 36
h 0.1 19 21 cbr 24 ------- 2 19.0 0.18 1 37
h 0.1 20 21 cbr 1000 ------- 3 20.0 0.19 0 38
h 0.1 20 21 cbr 24 ------- 3 20.0 0.19 1 39
+ 0.13 1 21 cbr 1000 ------- 2 1.0 0.0 0 0
- 0.13 1 21 cbr 1000 ------- 2 1.0 0.0 0 0
+ 0.13 1 21 cbr 24 ------- 2 1.0 0.0 1 1
+ 0.13 2 21 cbr 1000 ------- 3 2.0 0.1 0 2
- 0.13 2 21 cbr 1000 ------- 3 2.0 0.1 0 2
+ 0.13 2 21 cbr 24 ------- 3 2.0 0.1 1 3
+ 0.13 3 21 cbr 1000 ------- 1 3.0 0.2 0 4
- 0.13 3 21 cbr 1000 ------- 1 3.0 0.2 0 4
+ 0.13 3 21 cbr 24 ------- 1 3.0 0.2 1 5
+ 0.13 4 21 cbr 1000 ------- 2 4.0 0.3 0 6
- 0.13 4 21 cbr 1000 ------- 2 4.0 0.3 0 6
+ 0.13 4 21 cbr 24 ------- 2 4.0 0.3 1 7
+ 0.13 5 21 cbr 1000 ------- 3 5.0 0.4 0 8
- 0.13 5 21 cbr 1000 ------- 3 5.0 0.4 0 8
+ 0.13 5 21 cbr 24 ------- 3 5.0 0.4 1 9
+ 0.13 6 21 cbr 1000 ------- 1 6.0 0.5 0 10
- 0.13 6 21 cbr 1000 ------- 1 6.0 0.5 0 10
+ 0.13 6 21 cbr 24 ------- 1 6.0 0.5 1 11
+ 0.13 7 21 cbr 1000 ------- 2 7.0 0.6 0 12
- 0.13 7 21 cbr 1000 ------- 2 7.0 0.6 0 12
+ 0.13 7 21 cbr 24 ------- 2 7.0 0.6 1 13
+ 0.13 8 21 cbr 1000 ------- 3 8.0 0.7 0 14
- 0.13 8 21 cbr 1000 ------- 3 8.0 0.7 0 14
+ 0.13 8 21 cbr 24 ------- 3 8.0 0.7 1 15
+ 0.13 9 21 cbr 1000 ------- 1 9.0 0.8 0 16
- 0.13 9 21 cbr 1000 ------- 1 9.0 0.8 0 16
+ 0.13 9 21 cbr 24 ------- 1 9.0 0.8 1 17
+ 0.13 10 21 cbr 1000 ------- 2 10.0 0.9 0 18
- 0.13 10 21 cbr 1000 ------- 2 10.0 0.9 0 18
+ 0.13 10 21 cbr 24 ------- 2 10.0 0.9 1 19
+ 0.13 11 21 cbr 1000 ------- 3 11.0 0.10 0 20
- 0.13 11 21 cbr 1000 ------- 3 11.0 0.10 0 20
+ 0.13 11 21 cbr 24 ------- 3 11.0 0.10 1 21
+ 0.13 12 21 cbr 1000 ------- 1 12.0 0.11 0 22
- 0.13 12 21 cbr 1000 ------- 1 12.0 0.11 0 22
+ 0.13 12 21 cbr 24 ------- 1 12.0 0.11 1 23
+ 0.13 13 21 cbr 1000 ------- 2 13.0 0.12 0 24
- 0.13 13 21 cbr 1000 ------- 2 13.0 0.12 0 24
+ 0.13 13 21 cbr 24 ------- 2 13.0 0.12 1 25
+ 0.13 14 21 cbr 1000 ------- 3 14.0 0.13 0 26
- 0.13 14 21 cbr 1000 ------- 3 14.0 0.13 0 26
+ 0.13 14 21 cbr 24 ------- 3 14.0 0.13 1 27
+ 0.13 15 21 cbr 1000 ------- 1 15.0 0.14 0 28
- 0.13 15 21 cbr 1000 ------- 1 15.0 0.14 0 28
+ 0.13 15 21 cbr 24 ------- 1 15.0 0.14 1 29
+ 0.13 16 21 cbr 1000 ------- 2 16.0 0.15 0 30
- 0.13 16 21 cbr 1000 ------- 2 16.0 0.15 0 30
+ 0.13 16 21 cbr 24 ------- 2 16.0 0.15 1 31
+ 0.13 17 21 cbr 1000 ------- 3 17.0 0.16 0 32
- 0.13 17 21 cbr 1000 ------- 3 17.0 0.16 0 32
+ 0.13 17 21 cbr 24 ------- 3 17.0 0.16 1 33
+ 0.13 18 21 cbr 1000 ------- 1 18.0 0.17 0 34
- 0.13 18 21 cbr 1000 ------- 1 18.0 0.17 0 34
+ 0.13 18 21 cbr 24 ------- 1 18.0 0.17 1 35
+ 0.13 19 21 cbr 1000 ------- 2 19.0 0.18 0 36
- 0.13 19 21 cbr 1000 ------- 2 19.0 0.18 0 36
+ 0.13 19 21 cbr 24 ------- 2 19.0 0.18 1 37
+ 0.13 20 21 cbr 1000 ------- 3 20.0 0.19 0 38
- 0.13 20 21 cbr 1000 ------- 3 20.0 0.19 0 38
+ 0.13 20 21 cbr 24 ------- 3 20.0 0.19 1 39
d 0.130004 20 21 cbr 1000 ------- 2 1.0 0.0 0 0
d 0.130004 20 21 cbr 1000 ------- 3 2.0 0.1 0 2
d 0.130004 19 21 cbr 1000 ------- 2 1.0 0.0 0 0
d 0.130004 19 21 cbr 1000 ------- 3 2.0 0.1 0 2
d 0.130004 18 21 cbr 1000 ------- 2 1.0 0.0 0 0
d 0.130004 18 21 cbr 1000 ------- 3 2.0 0.1 0 2
d 0.130004 17 21 cbr 1000 ------- 2 1.0 0.0 0 0
d 0.130004 17 21 cbr 1000 ------- 3 2.0 0.1 0 2
d 0.130004 16 21 cbr 1000 ------- 2 1.0 0.0 0 0
d 0.130004 16 21 cbr 1000 ------- 3 2.0 0.1 0 2
d 0.130004 15 21 cbr 1000 ------- 2 1.0 0.0 0 0
d 0.130004 15 21 cbr 1000 ------- 3 2.0 0.1 0 2
d 0.130004 14 21 cbr 1000 ------- 2 1.0 0.0 0 0
d 0.130004 14 21 cbr 1000 ------- 3 2.0 0.1 0 2
d 0.130004 13 21 cbr 1000 ------- 2 1.0 0.0 0 0
d 0.130004 13 21 cbr 1000 ------- 3 2.0 0.1 0 2
d 0.130004 12 21 cbr 1000 ------- 2 1.0 0.0 0 0
d 0.130004 12 21 cbr 1000 ------- 3 2.0 0.1 0 2
d 0.130004 11 21 cbr 1000 ------- 2 1.0 0.0 0 0
d 0.130004 11 21 cbr 1000 ------- 3 2.0 0.1 0 2
d 0.130004 10 21 cbr 1000 ------- 2 1.0 0.0 0 0
d 0.130004 10 21 cbr 1000 ------- 3 2.0 0.1 0 2
d 0.130004 9 21 cbr 1000 ------- 2 1.0 0.0 0 0
d 0.130004 9 21 cbr 1000 ------- 3 2.0 0.1 0 2
d 0.130004 8 21 cbr 1000 ------- 2 1.0 0.0 0 0
d 0.130004 8 21 cbr 1000 ------- 3 2.0 0.1 0 2
d 0.130004 7 21 cbr 1000 ------- 2 1.0 0.0 0 0
d 0.130004 7 21 cbr 1000 ------- 3 2.0 0.1 0 2
d 0.130004 6 21 cbr 1000 ------- 2 1.0 0.0 0 0
d 0.130004 6 21 cbr 1000 ------- 3 2.0 0.1 0 2
d 0.130004 5 21 cbr 1000 ------- 2 1.0 0.0 0 0
d 0.130004 5 21 cbr 1000 ------- 3 2.0 0.1 0 2
d 0.130004 4 21 cbr 1000 ------- 2 1.0 0.0 0 0
d 0.130004 4 21 cbr 1000 ------- 3 2.0 0.1 0 2
d 0.130004 3 21 cbr 1000 ------- 2 1.0 0.0 0 0
d 0.130004 3 21 cbr 1000 ------- 3 2.0 0.1 0 2
c 0.1300 -2 -2 cbr 1000 ------- 2 1.0 0.0 0 0 -999.00 -999.00 -999.00 -999.00
d 0.130004 0 21 cbr 1000 ------- 2 1.0 0.0 0 0
c 0.1300 -2 -2 cbr 1000 ------- 3 2.0 0.1 0 2 -999.00 -999.00 -999.00 -999.00
d 0.130004 0 21 cbr 1000 ------- 3 2.0 0.1 0 2
d 0.130004 20 21 cbr 1000 ------- 1 3.0 0.2 0 4
d 0.130004 19 21 cbr 1000 ------- 1 3.0 0.2 0 4
d 0.130004 18 21 cbr 1000 ------- 1 3.0 0.2 0 4
d 0.130004 17 21 cbr 1000 ------- 1 3.0 0.2 0 4
d 0.130004 16 21 cbr 1000 ------- 1 3.0 0.2 0 4
d 0.130004 15 21 cbr 1000 ------- 1 3.0 0.2 0 4
d 0.130004 14 21 cbr 1000 ------- 1 3.0 0.2 0 4
d 0.130004 13 21 cbr 1000 ------- 1 3.0 0.2 0 4
d 0.130004 12 21 cbr 1000 ------- 1 3.0 0.2 0 4
d 0.130004 11 21 cbr 1000 ------- 1 3.0 0.2 0 4
d 0.130004 10 21 cbr 1000 ------- 1 3.0 0.2 0 4
d 0.130004 9 21 cbr 1000 ------- 1 3.0 0.2 0 4
d 0.130004 8 21 cbr 1000 ------- 1 3.0 0.2 0 4
d 0.130004 7 21 cbr 1000 ------- 1 3.0 0.2 0 4
d 0.130004 6 21 cbr 1000 ------- 1 3.0 0.2 0 4
d 0.130004 5 21 cbr 1000 ------- 1 3.0 0.2 0 4
d 0.130004 4 21 cbr 1000 ------- 1 3.0 0.2 0 4
d 0.130004 2 21 cbr 1000 ------- 2 1.0 0.0 0 0
d 0.130004 2 21 cbr 1000 ------- 1 3.0 0.2 0 4
d 0.130004 1 21 cbr 1000 ------- 3 2.0 0.1 0 2
d 0.130004 1 21 cbr 1000 ------- 1 3.0 0.2 0 4
c 0.1300 -2 -2 cbr 1000 ------- 1 3.0 0.2 0 4 -999.00 -999.00 -999.00 -999.00
d 0.130004 0 21 cbr 1000 ------- 1 3.0 0.2 0 4
d 0.130004 20 21 cbr 1000 ------- 2 4.0 0.3 0 6
d 0.130004 19 21 cbr 1000 ------- 2 4.0 0.3 0 6
d 0.130004 18 21 cbr 1000 ------- 2 4.0 0.3 0 6
d 0.130004 17 21 cbr 1000 ------- 2 4.0 0.3 0 6
d 0.130004 16 21 cbr 1000 ------- 2 4.0 0.3 0 6
d 0.130004 15 21 cbr 1000 ------- 2 4.0 0.3 0 6
d 0.130004 14 21 cbr 1000 ------- 2 4.0 0.3 0 6
d 0.130004 13 21 cbr 1000 ------- 2 4.0 0.3 0 6
d 0.130004 12 21 cbr 1000 ------- 2 4.0 0.3 0 6
d 0.130004 11 21 cbr 1000 ------- 2 4.0 0.3 0 6
d 0.130004 10 21 cbr 1000 ------- 2 4.0 0.3 0 6
d 0.130004 9 21 cbr 1000 ------- 2 4.0 0.3 0 6
d 0.130004 8 21 cbr 1000 ------- 2 4.0 0.3 0 6
d 0.130004 7 21 cbr 1000 ------- 2 4.0 0.3 0 6
d 0.130004 6 21 cbr 1000 ------- 2 4.0 0.3 0 6
d 0.130004 5 21 cbr 1000 ------- 2 4.0 0.3 0 6
d 0.130004 3 21 cbr 1000 ------- 2 4.0 0.3 0 6
d 0.130004 2 21 cbr 1000 ------- 2 4.0 0.3 0 6
d 0.130004 1 21 cbr 1000 ------- 2 4.0 0.3 0 6
c 0.1300 -2 -2 cbr 1000 ------- 2 4.0 0.3 0 6 -999.00 -999.00 -999.00 -999.00
d 0.130004 0 21 cbr 1000 ------- 2 4.0 0.3 0 6
d 0.130004 20 21 cbr 1000 ------- 3 5.0 0.4 0 8
d 0.130004 19 21 cbr 1000 ------- 3 5.0 0.4 0 8
d 0.130004 18 21 cbr 1000 ------- 3 5.0 0.4 0 8
d 0.130004 17 21 cbr 1000 ------- 3 5.0 0.4 0 8
d 0.130004 16 21 cbr 1000 ------- 3 5.0 0.4 0 8
d 0.130004 15 21 cbr 1000 ------- 3 5.0 0.4 0 8
d 0.130004 14 21 cbr 1000 ------- 3 5.0 0.4 0 8
d 0.130004 13 21 cbr 1000 ------- 3 5.0 0.4 0 8
d 0.130004 12 21 cbr 1000 ------- 3 5.0 0.4 0 8
d 0.130004 11 21 cbr 1000 ------- 3 5.0 0.4 0 8
d 0.130004 10 21 cbr 1000 ------- 3 5.0 0.4 0 8
d 0.130004 9 21 cbr 1000 ------- 3 5.0 0.4 0 8
d 0.130004 8 21 cbr 1000 ------- 3 5.0 0.4 0 8
d 0.130004 7 21 cbr 1000 ------- 3 5.0 0.4 0 8
d 0.130004 6 21 cbr 1000 ------- 3 5.0 0.4 0 8
d 0.130004 4 21 cbr 1000 ------- 3 5.0 0.4 0 8
d 0.130004 3 21 cbr 1000 ------- 3 5.0 0.4 0 8
d 0.130004 2 21 cbr 1000 ------- 3 5.0 0.4 0 8
d 0.130004 1 21 cbr 1000 ------- 3 5.0 0.4 0 8
c 0.1300 -2 -2 cbr 1000 ------- 3 5.0 0.4 0 8 -999.00 -999.00 -999.00 -999.00
d 0.130004 0 21 cbr 1000 ------- 3 5.0 0.4 0 8
d 0.130004 20 21 cbr 1000 ------- 1 6.0 0.5 0 10
d 0.130004 19 21 cbr 1000 ------- 1 6.0 0.5 0 10
d 0.130004 18 21 cbr 1000 ------- 1 6.0 0.5 0 10
d 0.130004 17 21 cbr 1000 ------- 1 6.0 0.5 0 10
d 0.130004 16 21 cbr 1000 ------- 1 6.0 0.5 0 10
d 0.130004 15 21 cbr 1000 ------- 1 6.0 0.5 0 10
d 0.130004 14 21 cbr 1000 ------- 1 6.0 0.5 0 10
d 0.130004 13 21 cbr 1000 ------- 1 6.0 0.5 0 10
d 0.130004 12 21 cbr 1000 ------- 1 6.0 0.5 0 10
d 0.130004 11 21 cbr 1000 ------- 1 6.0 0.5 0 10
d 0.130004 10 21 cbr 1000 ------- 1 6.0 0.5 0 10
d 0.130004 9 21 cbr 1000 ------- 1 6.0 0.5 0 10
d 0.130004 8 21 cbr 1000 ------- 1 6.0 0.5 0 10
d 0.130004 7 21 cbr 1000 ------- 1 6.0 0.5 0 10
d 0.130004 5 21 cbr 1000 ------- 1 6.0 0.5 0 10
d 0.130004 4 21 cbr 1000 ------- 1 6.0 0.5 0 10
d 0.130004 3 21 cbr 1000 ------- 1 6.0 0.5 0 10
d 0.130004 2 21 cbr 1000 ------- 1 6.0 0.5 0 10
d 0.130004 1 21 cbr 1000 ------- 1 6.0 0.5 0 10
c 0.1300 -2 -2 cbr 1000 ------- 1 6.0 0.5 0 10 -999.00 -999.00 -999.00 -999.00
d 0.130004 0 21 cbr 1000 ------- 1 6.0 0.5 0 10
d 0.130004 20 21 cbr 1000 ------- 2 7.0 0.6 0 12
d 0.130004 19 21 cbr 1000 ------- 2 7.0 0.6 0 12
d 0.130004 18 21 cbr 1000 ------- 2 7.0 0.6 0 12
d 0.130004 17 21 cbr 1000 ------- 2 7.0 0.6 0 12
d 0.130004 16 21 cbr 1000 ------- 2 7.0 0.6 0 12
d 0.130004 15 21 cbr 1000 ------- 2 7.0 0.6 0 12
d 0.130004 14 21 cbr 1000 ------- 2 7.0 0.6 0 12
d 0.130004 13 21 cbr 1000 ------- 2 7.0 0.6 0 12
d 0.130004 12 21 cbr 1000 ------- 2 7.0 0.6 0 12
d 0.130004 11 21 cbr 1000 ------- 2 7.0 0.6 0 12
d 0.130004 10 21 cbr 1000 ------- 2 7.0 0.6 0 12
d 0.130004 9 21 cbr 1000 ------- 2 7.0 0.6 0 12
d 0.130004 8 21 cbr 1000 ------- 2 7.0 0.6 0 12
d 0.130004 6 21 cbr 1000 ------- 2 7.0 0.6 0 12
d 0.130004 5 21 cbr 1000 ------- 2 7.0 0.6 0 12
d 0.130004 4 21 cbr 1000 ------- 2 7.0 0.6 0 12
d 0.130004 3 21 cbr 1000 ------- 2 7.0 0.6 0 12
d 0.130004 2 21 cbr 1000 ------- 2 7.0 0.6 0 12
d 0.130004 1 21 cbr 1000 ------- 2 7.0 0.6 0 12
c 0.1300 -2 -2 cbr 1000 ------- 2 7.0 0.6 0 12 -999.00 -999.00 -999.00 -999.00
d 0.130004 0 21 cbr 1000 ------- 2 7.0 0.6 0 12
d 0.130004 20 21 cbr 1000 ------- 3 8.0 0.7 0 14
d 0.130004 19 21 cbr 1000 ------- 3 8.0 0.7 0 14
d 0.130004 18 21 cbr 1000 ------- 3 8.0 0.7 0 14
d 0.130004 17 21 cbr 1000 ------- 3 8.0 0.7 0 14
d 0.130004 16 21 cbr 1000 ------- 3 8.0 0.7 0 14
d 0.130004 15 21 cbr 1000 ------- 3 8.0 0.7 0 14
d 0.130004 14 21 cbr 1000 ------- 3 8.0 0.7 0 14
d 0.130004 13 21 cbr 1000 ------- 3 8.0 0.7 0 14
d 0.130004 12 21 cbr 1000 ------- 3 8.0 0.7 0 14
d 0.130004 11 21 cbr 1000 ------- 3 8.0 0.7 0 14
d 0.130004 10 21 cbr 1000 ------- 3 8.0 0.7 0 14
d 0.130004 9 21 cbr 1000 ------- 3 8.0 0.7 0 14
d 0.130004 7 21 cbr 1000 ------- 3 8.0 0.7 0 14
d 0.130004 6 21 cbr 1000 ------- 3 8.0 0.7 0 14
d 0.130004 5 21 cbr 1000 ------- 3 8.0 0.7 0 14
d 0.130004 4 21 cbr 1000 ------- 3 8.0 0.7 0 14
d 0.130004 3 21 cbr 1000 ------- 3 8.0 0.7 0 14
d 0.130004 2 21 cbr 1000 ------- 3 8.0 0.7 0 14
d 0.130004 1 21 cbr 1000 ------- 3 8.0 0.7 0 14
c 0.1300 -2 -2 cbr 1000 ------- 3 8.0 0.7 0 14 -999.00 -999.00 -999.00 -999.00
d 0.130004 0 21 cbr 1000 ------- 3 8.0 0.7 0 14
d 0.130004 20 21 cbr 1000 ------- 1 9.0 0.8 0 16
d 0.130004 19 21 cbr 1000 ------- 1 9.0 0.8 0 16
d 0.130004 18 21 cbr 1000 ------- 1 9.0 0.8 0 16
d 0.130004 17 21 cbr 1000 ------- 1 9.0 0.8 0 16
d 0.130004 16 21 cbr 1000 ------- 1 9.0 0.8 0 16
d 0.130004 15 21 cbr 1000 ------- 1 9.0 0.8 0 16
d 0.130004 14 21 cbr 1000 ------- 1 9.0 0.8 0 16
d 0.130004 13 21 cbr 1000 ------- 1 9.0 0.8 0 16
d 0.130004 12 21 cbr 1000 ------- 1 9.0 0.8 0 16
d 0.130004 11 21 cbr 1000 ------- 1 9.0 0.8 0 16
d 0.130004 10 21 cbr 1000 ------- 1 9.0 0.8 0 16
d 0.130004 8 21 cbr 1000 ------- 1 9.0 0.8 0 16
d 0.130004 7 21 cbr 1000 ------- 1 9.0 0.8 0 16
d 0.130004 6 21 cbr 1000 ------- 1 9.0 0.8 0 16
d 0.130004 5 21 cbr 1000 ------- 1 9.0 0.8 0 16
d 0.130004 4 21 cbr 1000 ------- 1 9.0 0.8 0 16
d 0.130004 3 21 cbr 1000 ------- 1 9.0 0.8 0 16
d 0.130004 2 21 cbr 1000 ------- 1 9.0 0.8 0 16
d 0.130004 1 21 cbr 1000 ------- 1 9.0 0.8 0 16
c 0.1300 -2 -2 cbr 1000 ------- 1 9.0 0.8 0 16 -999.00 -999.00 -999.00 -999.00
d 0.130004 0 21 cbr 1000 ------- 1 9.0 0.8 0 16
d 0.130004 20 21 cbr 1000 ------- 2 10.0 0.9 0 18
d 0.130004 19 21 cbr 1000 ------- 2 10.0 0.9 0 18
d 0.130004 18 21 cbr 1000 ------- 2 10.0 0.9 0 18
d 0.130004 17 21 cbr 1000 ------- 2 10.0 0.9 0 18
d 0.130004 16 21 cbr 1000 ------- 2 10.0 0.9 0 18
d 0.130004 15 21 cbr 1000 ------- 2 10.0 0.9 0 18
d 0.130004 14 21 cbr 1000 ------- 2 10.0 0.9 0 18
d 0.130004 13 21 cbr 1000 ------- 2 10.0 0.9 0 18
d 0.130004 12 21 cbr 1000 ------- 2 10.0 0.9 0 18
d 0.130004 11 21 cbr 1000 ------- 2 10.0 0.9 0 18
d 0.130004 9 21 cbr 1000 ------- 2 10.0 0.9 0 18
d 0.130004 8 21 cbr 1000 ------- 2 10.0 0.9 0 18
d 0.130004 7 21 cbr 1000 ------- 2 10.0 0.9 0 18
d 0.130004 6 21 cbr 1000 ------- 2 10.0 0.9 0 18
d 0.130004 5 21 cbr 1000 ------- 2 10.0 0.9 0 18
d 0.130004 4 21 cbr 1000 ------- 2 10.0 0.9 0 18
d 0.130004 3 21 cbr 1000 ------- 2 10.0 0.9 0 18
d 0.130004 2 21 cbr 1000 ------- 2 10.0 0.9 0 18
d 0.130004 1 21 cbr 1000 ------- 2 10.0 0.9 0 18
c 0.1300 -2 -2 cbr 1000 ------- 2 10.0 0.9 0 18 -999.00 -999.00 -999.00 -999.00
d 0.130004 0 21 cbr 1000 ------- 2 10.0 0.9 0 18
d 0.130004 20 21 cbr 1000 ------- 3 11.0 0.10 0 20
d 0.130004 19 21 cbr 1000 ------- 3 11.0 0.10 0 20
d 0.130004 18 21 cbr 1000 ------- 3 11.0 0.10 0 20
d 0.130004 17 21 cbr 1000 ------- 3 11.0 0.10 0 20
d 0.130004 16 21 cbr 1000 ------- 3 11.0 0.10 0 20
d 0.130004 15 21 cbr 1000 ------- 3 11.0 0.10 0 20
d 0.130004 14 21 cbr 1000 ------- 3 11.0 0.10 0 20
d 0.130004 13 21 cbr 1000 ------- 3 11.0 0.10 0 20
d 0.130004 12 21 cbr 1000 ------- 3 11.0 0.10 0 20
d 0.130004 10 21 cbr 1000 ------- 3 11.0 0.10 0 20
d 0.130004 9 21 cbr 1000 ------- 3 11.0 0.10 0 20
d 0.130004 8 21 cbr 1000 ------- 3 11.0 0.10 0 20
d 0.130004 7 21 cbr 1000 ------- 3 11.0 0.10 0 20
d 0.130004 6 21 cbr 1000 ------- 3 11.0 0.10 0 20
d 0.130004 5 21 cbr 1000 ------- 3 11.0 0.10 0 20
d 0.130004 4 21 cbr 1000 ------- 3 11.0 0.10 0 20
d 0.130004 3 21 cbr 1000 ------- 3 11.0 0.10 0 20
d 0.130004 2 21 cbr 1000 ------- 3 11.0 0.10 0 20
d 0.130004 1 21 cbr 1000 ------- 3 11.0 0.10 0 20
c 0.1300 -2 -2 cbr 1000 ------- 3 11.0 0.10 0 20 -999.00 -999.00 -999.00 -999.00
d 0.130004 0 21 cbr 1000 ------- 3 11.0 0.10 0 20
d 0.130004 20 21 cbr 1000 ------- 1 12.0 0.11 0 22
d 0.130004 19 21 cbr 1000 ------- 1 12.0 0.11 0 22
d 0.130004 18 21 cbr 1000 ------- 1 12.0 0.11 0 22
d 0.130004 17 21 cbr 1000 ------- 1 12.0 0.11 0 22
d 0.130004 16 21 cbr 1000 ------- 1 12.0 0.11 0 22
d 0.130004 15 21 cbr 1000 ------- 1 12.0 0.11 0 22
d 0.130004 14 21 cbr 1000 ------- 1 12.0 0.11 0 22
d 0.130004 13 21 cbr 1000 ------- 1 12.0 0.11 0 22
d 0.130004 11 21 cbr 1000 ------- 1 12.0 0.11 0 22
d 0.130004 10 21 cbr 1000 ------- 1 12.0 0.11 0 22
d 0.130004 9 21 cbr 1000 ------- 1 12.0 0.11 0 22
d 0.130004 8 21 cbr 1000 ------- 1 12.0 0.11 0 22
d 0.130004 7 21 cbr 1000 ------- 1 12.0 0.11 0 22
d 0.130004 6 21 cbr 1000 ------- 1 12.0 0.11 0 22
d 0.130004 5 21 cbr 1000 ------- 1 12.0 0.11 0 22
d 0.130004 4 21 cbr 1000 ------- 1 12.0 0.11 0 22
d 0.130004 3 21 cbr 1000 ------- 1 12.0 0.11 0 22
d 0.130004 2 21 cbr 1000 ------- 1 12.0 0.11 0 22
d 0.130004 1 21 cbr 1000 ------- 1 12.0 0.11 0 22
c 0.1300 -2 -2 cbr 1000 ------- 1 12.0 0.11 0 22 -999.00 -999.00 -999.00 -999.00
d 0.130004 0 21 cbr 1000 ------- 1 12.0 0.11 0 22
d 0.130004 20 21 cbr 1000 ------- 2 13.0 0.12 0 24
d 0.130004 19 21 cbr 1000 ------- 2 13.0 0.12 0 24
d 0.130004 18 21 cbr 1000 ------- 2 13.0 0.12 0 24
d 0.130004 17 21 cbr 1000 ------- 2 13.0 0.12 0 24
d 0.130004 16 21 cbr 1000 ------- 2 13.0 0.12 0 24
d 0.130004 15 21 cbr 1000 ------- 2 13.0 0.12 0 24
d 0.130004 14 21 cbr 1000 ------- 2 13.0 0.12 0 24
d 0.130004 12 21 cbr 1000 ------- 2 13.0 0.12 0 24
d 0.130004 11 21 cbr 1000 ------- 2 13.0 0.12 0 24
d 0.130004 10 21 cbr 1000 ------- 2 13.0 0.12 0 24
d 0.130004 9 21 cbr 1000 ------- 2 13.0 0.12 0 24
d 0.130004 8 21 cbr 1000 ------- 2 13.0 0.12 0 24
d 0.130004 7 21 cbr 1000 ------- 2 13.0 0.12 0 24
d 0.130004 6 21 cbr 1000 ------- 2 13.0 0.12 0 24
d 0.130004 5 21 cbr 1000 ------- 2 13.0 0.12 0 24
d 0.130004 4 21 cbr 1000 ------- 2 13.0 0.12 0 24
d 0.130004 3 21 cbr 1000 ------- 2 13.0 0.12 0 24
d 0.130004 2 21 cbr 1000 ------- 2 13.0 0.12 0 24
d 0.130004 1 21 cbr 1000 ------- 2 13.0 0.12 0 24
c 0.1300 -2 -2 cbr 1000 ------- 2 13.0 0.12 0 24 -999.00 -999.00 -999.00 -999.00
d 0.130004 0 21 cbr 1000 ------- 2 13.0 0.12 0 24
d 0.130004 20 21 cbr 1000 ------- 3 14.0 0.13 0 26
d 0.130004 19 21 cbr 1000 ------- 3 14.0 0.13 0 26
d 0.130004 18 21 cbr 1000 ------- 3 14.0 0.13 0 26
d 0.130004 17 21 cbr 1000 ------- 3 14.0 0.13 0 26
d 0.130004 16 21 cbr 1000 ------- 3 14.0 0.13 0 26
d 0.130004 15 21 cbr 1000 ------- 3 14.0 0.13 0 26
d 0.130004 13 21 cbr 1000 ------- 3 14.0 0.13 0 26
d 0.130004 12 21 cbr 1000 ------- 3 14.0 0.13 0 26
d 0.130004 11 21 cbr 1000 ------- 3 14.0 0.13 0 26
d 0.130004 10 21 cbr 1000 ------- 3 14.0 0.13 0 26
d 0.130004 9 21 cbr 1000 ------- 3 14.0 0.13 0 26
d 0.130004 8 21 cbr 1000 ------- 3 14.0 0.13 0 26
d 0.130004 7 21 cbr 1000 ------- 3 14.0 0.13 0 26
d 0.130004 6 21 cbr 1000 ------- 3 14.0 0.13 0 26
d 0.130004 5 21 cbr 1000 ------- 3 14.0 0.13 0 26
d 0.130004 4 21 cbr 1000 ------- 3 14.0 0.13 0 26
d 0.130004 3 21 cbr 1000 ------- 3 14.0 0.13 0 26
d 0.130004 2 21 cbr 1000 ------- 3 14.0 0.13 0 26
d 0.130004 1 21 cbr 1000 ------- 3 14.0 0.13 0 26
c 0.1300 -2 -2 cbr 1000 ------- 3 14.0 0.13 0 26 -999.00 -999.00 -999.00 -999.00
d 0.130004 0 21 cbr 1000 ------- 3 14.0 0.13 0 26
d 0.130004 20 21 cbr 1000 ------- 1 15.0 0.14 0 28
d 0.130004 19 21 cbr 1000 ------- 1 15.0 0.14 0 28
d 0.130004 18 21 cbr 1000 ------- 1 15.0 0.14 0 28
d 0.130004 17 21 cbr 1000 ------- 1 15.0 0.14 0 28
d 0.130004 16 21 cbr 1000 ------- 1 15.0 0.14 0 28
d 0.130004 14 21 cbr 1000 ------- 1 15.0 0.14 0 28
d 0.130004 13 21 cbr 1000 ------- 1 15.0 0.14 0 28
d 0.130004 12 21 cbr 1000 ------- 1 15.0 0.14 0 28
d 0.130004 11 21 cbr 1000 ------- 1 15.0 0.14 0 28
d 0.130004 10 21 cbr 1000 ------- 1 15.0 0.14 0 28
d 0.130004 9 21 cbr 1000 ------- 1 15.0 0.14 0 28
d 0.130004 8 21 cbr 1000 ------- 1 15.0 0.14 0 28
d 0.130004 7 21 cbr 1000 ------- 1 15.0 0.14 0 28
d 0.130004 6 21 cbr 1000 ------- 1 15.0 0.14 0 28
d 0.130004 5 21 cbr 1000 ------- 1 15.0 0.14 0 28
d 0.130004 4 21 cbr 1000 ------- 1 15.0 0.14 0 28
d 0.130004 3 21 cbr 1000 ------- 1 15.0 0.14 0 28
d 0.130004 2 21 cbr 1000 ------- 1 15.0 0.14 0 28
d 0.130004 1 21 cbr 1000 ------- 1 15.0 0.14 0 28
c 0.1300 -2 -2 cbr 1000 ------- 1 15.0 0.14 0 28 -999.00 -999.00 -999.00 -999.00
d 0.130004 0 21 cbr 1000 ------- 1 15.0 0.14 0 28
d 0.130004 20 21 cbr 1000 ------- 2 16.0 0.15 0 30
d 0.130004 19 21 cbr 1000 ------- 2 16.0 0.15 0 30
d 0.130004 18 21 cbr 1000 ------- 2 16.0 0.15 0 30
d 0.130004 17 21 cbr 1000 ------- 2 16.0 0.15 0 30
d 0.130004 15 21 cbr 1000 ------- 2 16.0 0.15 0 30
d 0.130004 14 21 cbr 1000 ------- 2 16.0 0.15 0 30
d 0.130004 13 21 cbr 1000 ------- 2 16.0 0.15 0 30
d 0.130004 12 21 cbr 1000 ------- 2 16.0 0.15 0 30
d 0.130004 11 21 cbr 1000 ------- 2 16.0 0.15 0 30
d 0.130004 10 21 cbr 1000 ------- 2 16.0 0.15 0 30
d 0.130004 9 21 cbr 1000 ------- 2 16.0 0.15 0 30
d 0.130004 8 21 cbr 1000 ------- 2 16.0 0.15 0 30
d 0.130004 7 21 cbr 1000 ------- 2 16.0 0.15 0 30
d 0.130004 6 21 cbr 1000 ------- 2 16.0 0.15 0 30
d 0.130004 5 21 cbr 1000 ------- 2 16.0 0.15 0 30
d 0.130004 4 21 cbr 1000 ------- 2 16.0 0.15 0 30
d 0.130004 3 21 cbr 1000 ------- 2 16.0 0.15 0 30
d 0.130004 2 21 cbr 1000 ------- 2 16.0 0.15 0 30
d 0.130004 1 21 cbr 1000 ------- 2 16.0 0.15 0 30
c 0.1300 -2 -2 cbr 1000 ------- 2 16.0 0.15 0 30 -999.00 -999.00 -999.00 -999.00
d 0.130004 0 21 cbr 1000 ------- 2 16.0 0.15 0 30
d 0.130004 20 21 cbr 1000 ------- 3 17.0 0.16 0 32
d 0.130004 19 21 cbr 1000 ------- 3 17.0 0.16 0 32
d 0.130004 18 21 cbr 1000 ------- 3 17.0 0.16 0 32
d 0.130004 16 21 cbr 1000 ------- 3 17.0 0.16 0 32
d 0.130004 15 21 cbr 1000 ------- 3 17.0 0.16 0 32
d 0.130004 14 21 cbr 1000 ------- 3 17.0 0.16 0 32
d 0.130004 13 21 cbr 1000 ------- 3 17.0 0.16 0 32
d 0.130004 12 21 cbr 1000 ------- 3 17.0 0.16 0 32
d 0.130004 11 21 cbr 1000 ------- 3 17.0 0.16 0 32
d 0.130004 10 21 cbr 1000 ------- 3 17.0 0.16 0 32
d 0.130004 9 21 cbr 1000 ------- 3 17.0 0.16 0 32
d 0.130004 8 21 cbr 1000 ------- 3 17.0 0.16 0 32
d 0.130004 7 21 cbr 1000 ------- 3 17.0 0.16 0 32
d 0.130004 6 21 cbr 1000 ------- 3 17.0 0.16 0 32
d 0.130004 5 21 cbr 1000 ------- 3 17.0 0.16 0 32
d 0.130004 4 21 cbr 1000 ------- 3 17.0 0.16 0 32
d 0.130004 3 21 cbr 1000 ------- 3 17.0 0.16 0 32
d 0.130004 2 21 cbr 1000 ------- 3 17.0 0.16 0 32
d 0.130004 1 21 cbr 1000 ------- 3 17.0 0.16 0 32
c 0.1300 -2 -2 cbr 1000 ------- 3 17.0 0.16 0 32 -999.00 -999.00 -999.00 -999.00
d 0.130004 0 21 cbr 1000 ------- 3 17.0 0.16 0 32
d 0.130004 20 21 cbr 1000 ------- 1 18.0 0.17 0 34
d 0.130004 19 21 cbr 1000 ------- 1 18.0 0.17 0 34
d 0.130004 17 21 cbr 1000 ------- 1 18.0 0.17 0 34
d 0.130004 16 21 cbr 1000 ------- 1 18.0 0.17 0 34
d 0.130004 15 21 cbr 1000 ------- 1 18.0 0.17 0 34
d 0.130004 14 21 cbr 1000 ------- 1 18.0 0.17 0 34
d 0.130004 13 21 cbr 1000 ------- 1 18.0 0.17 0 34
d 0.130004 12 21 cbr 1000 ------- 1 18.0 0.17 0 34
d 0.130004 11 21 cbr 1000 ------- 1 18.0 0.17 0 34
d 0.130004 10 21 cbr 1000 ------- 1 18.0 0.17 0 34
d 0.130004 9 21 cbr 1000 ------- 1 18.0 0.17 0 34
d 0.130004 8 21 cbr 1000 ------- 1 18.0 0.17 0 34
d 0.130004 7 21 cbr 1000 ------- 1 18.0 0.17 0 34
d 0.130004 6 21 cbr 1000 ------- 1 18.0 0.17 0 34
d 0.130004 5 21 cbr 1000 ------- 1 18.0 0.17 0 34
d 0.130004 4 21 cbr 1000 ------- 1 18.0 0.17 0 34
d 0.130004 3 21 cbr 1000 ------- 1 18.0 0.17 0 34
d 0.130004 2 21 cbr 1000 ------- 1 18.0 0.17 0 34
d 0.130004 1 21 cbr 1000 ------- 1 18.0 0.17 0 34
c 0.1300 -2 -2 cbr 1000 ------- 1 18.0 0.17 0 34 -999.00 -999.00 -999.00 -999.00
d 0.130004 0 21 cbr 1000 ------- 1 18.0 0.17 0 34
d 0.130004 20 21 cbr 1000 ------- 2 19.0 0.18 0 36
d 0.130004 18 21 cbr 1000 ------- 2 19.0 0.18 0 36
d 0.130004 17 21 cbr 1000 ------- 2 19.0 0.18 0 36
d 0.130004 16 21 cbr 1000 ------- 2 19.0 0.18 0 36
d 0.130004 15 21 cbr 1000 ------- 2 19.0 0.18 0 36
d 0.130004 14 21 cbr 1000 ------- 2 19.0 0.18 0 36
d 0.130004 13 21 cbr 1000 ------- 2 19.0 0.18 0 36
d 0.130004 12 21 cbr 1000 ------- 2 19.0 0.18 0 36
d 0.130004 11 21 cbr 1000 ------- 2 19.0 0.18 0 36
d 0.130004 10 21 cbr 1000 ------- 2 19.0 0.18 0 36
d 0.130004 9 21 cbr 1000 ------- 2 19.0 0.18 0 36
d 0.130004 8 21 cbr 1000 ------- 2 19.0 0.18 0 36
d 0.130004 7 21 cbr 1000 ------- 2 19.0 0.18 0 36
d 0.130004 6 21 cbr 1000 ------- 2 19.0 0.18 0 36
d 0.130004 5 21 cbr 1000 ------- 2 19.0 0.18 0 36
d 0.130004 4 21 cbr 1000 ------- 2 19.0 0.18 0 36
d 0.130004 3 21 cbr 1000 ------- 2 19.0 0.18 0 36
d 0.130004 2 21 cbr 1000 ------- 2 19.0 0.18 0 36
d 0.130004 1 21 cbr 1000 ------- 2 19.0 0.18 0 36
c 0.1300 -2 -2 cbr 1000 ------- 2 19.0 0.18 0 36 -999.00 -999.00 -999.00 -999.00
d 0.130004 0 21 cbr 1000 ------- 2 19.0 0.18 0 36
d 0.130004 19 21 cbr 1000 ------- 3 20.0 0.19 0 38
d 0.130004 18 21 cbr 1000 ------- 3 20.0 0.19 0 38
d 0.130004 17 21 cbr 1000 ------- 3 20.0 0.19 0 38
d 0.130004 16 21 cbr 1000 ------- 3 20.0 0.19 0 38
d 0.130004 15 21 cbr 1000 ------- 3 20.0 0.19 0 38
d 0.130004 14 21 cbr 1000 ------- 3 20.0 0.19 0 38
d 0.130004 13 21 cbr 1000 ------- 3 20.0 0.19 0 38
d 0.130004 12 21 cbr 1000 ------- 3 20.0 0.19 0 38
d 0.130004 11 21 cbr 1000 ------- 3 20.0 0.19 0 38
d 0.130004 10 21 cbr 1000 ------- 3 20.0 0.19 0 38
d 0.130004 9 21 cbr 1000 ------- 3 20.0 0.19 0 38
d 0.130004 8 21 cbr 1000 ------- 3 20.0 0.19 0 38
d 0.130004 7 21 cbr 1000 ------- 3 20.0 0.19 0 38
d 0.130004 6 21 cbr 1000 ------- 3 20.0 0.19 0 38
d 0.130004 5 21 cbr 1000 ------- 3 20.0 0.19 0 38
d 0.130004 4 21 cbr 1000 ------- 3 20.0 0.19 0 38
d 0.130004 3 21 cbr 1000 ------- 3 20.0 0.19 0 38
d 0.130004 2 21 cbr 1000 ------- 3 20.0 0.19 0 38
d 0.130004 1 21 cbr 1000 ------- 3 20.0 0.19 0 38
c 0.1300 -2 -2 cbr 1000 ------- 3 20.0 0.19 0 38 -999.00 -999.00 -999.00 -999.00
d 0.130004 0 21 cbr 1000 ------- 3 20.0 0.19 0 38
h 0.18192 1 21 cbr 1000 ------- 2 1.0 0.0 2 40
h 0.18192 1 21 cbr 24 ------- 2 1.0 0.0 3 41
h 0.18192 2 21 cbr 1000 ------- 3 2.0 0.1 2 42
h 0.18192 2 21 cbr 24 ------- 3 2.0 0.1 3 43
h 0.18192 3 21 cbr 1000 ------- 1 3.0 0.2 2 44
h 0.18192 3 21 cbr 24 ------- 1 3.0 0.2 3 45
h 0.18192 4 21 cbr 1000 ------- 2 4.0 0.3 2 46
h 0.18192 4 21 cbr 24 ------- 2 4.0 0.3 3 47
h 0.18192 5 21 cbr 1000 ------- 3 5.0 0.4 2 48
h 0.18192 5 21 cbr 24 ------- 3 5.0 0.4 3 49
h 0.18192 6 21 cbr 1000 ------- 1 6.0 0.5 2 50
h 0.18192 6 21 cbr 24 ------- 1 6.0 0.5 3 51
h 0.18192 7 21 cbr 1000 ------- 2 7.0 0.6 2 52
h 0.18192 7 21 cbr 24 ------- 2 7.0 0.6 3 53
h 0.18192 8 21 cbr 1000 ------- 3 8.0 0.7 2 54
h 0.18192 8 21 cbr 24 ------- 3 8.0 0.7 3 55
h 0.18192 9 21 cbr 1000 ------- 1 9.0 0.8 2 56
h 0.18192 9 21 cbr 24 ------- 1 9.0 0.8 3 57
h 0.18192 10 21 cbr 1000 ------- 2 10.0 0.9 2 58
h 0.18192 10 21 cbr 24 ------- 2 10.0 0.9 3 59
h 0.18192 11 21 cbr 1000 ------- 3 11.0 0.10 2 60
h 0.18192 11 21 cbr 24 ------- 3 11.0 0.10 3 61
h 0.18192 12 21 cbr 1000 ------- 1 12.0 0.11 2 62
h 0.18192 12 21 cbr 24 ------- 1 12.0 0.11 3 63
h 0.18192 13 21 cbr 1000 ------- 2 13.0 0.12 2 64
h 0.18192 13 21 cbr 24 ------- 2 13.0 0.12 3 65
h 0.18192 14 21 cbr 1000 ------- 3 14.0 0.13 2 66
h 0.18192 14 21 cbr 24 ------- 3 14.0 0.13 3 67
h 0.18192 15 21 cbr 1000 ------- 1 15.0 0.14 2 68
h 0.18192 15 21 cbr 24 ------- 1 15.0 0.14 3 69
h 0.18192 16 21 cbr 1000 ------- 2 16.0 0.15 2 70
h 0.18192 16 21 cbr 24 ------- 2 16.0 0.15 3 71
h 0.18192 17 21 cbr 1000 ------- 3 17.0 0.16 2 72
h 0.18192 17 21 cbr 24 ------- 3 17.0 0.16 3 73
h 0.18192 18 21 cbr 1000 ------- 1 18.0 0.17 2 74
h 0.18192 18 21 cbr 24 ------- 1 18.0 0.17 3 75
h 0.18192 19 21 cbr 1000 ------- 2 19.0 0.18 2 76
h 0.18192 19 21 cbr 24 ------- 2 19.0 0.18 3 77
h 0.18192 20 21 cbr 1000 ------- 3 20.0 0.19 2 78
h 0.18192 20 21 cbr 24 ------- 3 20.0 0.19 3 79
+ 0.21192 1 21 cbr 1000 ------- 2 1.0 0.0 2 40
+ 0.21192 1 21 cbr 24 ------- 2 1.0 0.0 3 41
+ 0.21192 2 21 cbr 1000 ------- 3 2.0 0.1 2 42
+ 0.21192 2 21 cbr 24 ------- 3 2.0 0.1 3 43
+ 0.21192 3 21 cbr 1000 ------- 1 3.0 0.2 2 44
+ 0.21192 3 21 cbr 24 ------- 1 3.0 0.2 3 45
+ 0.21192 4 21 cbr 1000 ------- 2 4.0 0.3 2 46
+ 0.21192 4 21 cbr 24 ------- 2 4.0 0.3 3 47
+ 0.21192 5 21 cbr 1000 ------- 3 5.0 0.4 2 48
+ 0.21192 5 21 cbr 24 ------- 3 5.0 0.4 3 49
+ 0.21192 6 21 cbr 1000 ------- 1 6.0 0.5 2 50
+ 0.21192 6 21 cbr 24 ------- 1 6.0 0.5 3 51
+ 0.21192 7 21 cbr 1000 ------- 2 7.0 0.6 2 52
+ 0.21192 7 21 cbr 24 ------- 2 7.0 0.6 3 53
+ 0.21192 8 21 cbr 1000 ------- 3 8.0 0.7 2 54
+ 0.21192 8 21 cbr 24 ------- 3 8.0 0.7 3 55
+ 0.21192 9 21 cbr 1000 ------- 1 9.0 0.8 2 56
+ 0.21192 9 21 cbr 24 ------- 1 9.0 0.8 3 57
+ 0.21192 10 21 cbr 1000 ------- 2 10.0 0.9 2 58
+ 0.21192 10 21 cbr 24 ------- 2 10.0 0.9 3 59
+ 0.21192 11 21 cbr 1000 ------- 3 11.0 0.10 2 60
+ 0.21192 11 21 cbr 24 ------- 3 11.0 0.10 3 61
+ 0.21192 12 21 cbr 1000 ------- 1 12.0 0.11 2 62
+ 0.21192 12 21 cbr 24 ------- 1 12.0 0.11 3 63
+ 0.21192 13 21 cbr 1000 ------- 2 13.0 0.12 2 64
+ 0.21192 13 21 cbr 24 ------- 2 13.0 0.12 3 65
+ 0.21192 14 21 cbr 1000 ------- 3 14.0 0.13 2 66
+ 0.21192 14 21 cbr 24 ------- 3 14.0 0.13 3 67
+ 0.21192 15 21 cbr 1000 ------- 1 15.0 0.14 2 68
+ 0.21192 15 21 cbr 24 ------- 1 15.0 0.14 3 69
+ 0.21192 16 21 cbr 1000 ------- 2 16.0 0.15 2 70
+ 0.21192 16 21 cbr 24 ------- 2 16.0 0.15 3 71
+ 0.21192 17 21 cbr 1000 ------- 3 17.0 0.16 2 72
+ 0.21192 17 21 cbr 24 ------- 3 17.0 0.16 3 73
+ 0.21192 18 21 cbr 1000 ------- 1 18.0 0.17 2 74
+ 0.21192 18 21 cbr 24 ------- 1 18.0 0.17 3 75
+ 0.21192 19 21 cbr 1000 ------- 2 19.0 0.18 2 76
+ 0.21192 19 21 cbr 24 ------- 2 19.0 0.18 3 77
+ 0.21192 20 21 cbr 1000 ------- 3 20.0 0.19 2 78
+ 0.21192 20 21 cbr 24 ------- 3 20.0 0.19 3 79
h 0.26384 1 21 cbr 1000 ------- 2 1.0 0.0 4 80
h 0.26384 1 21 cbr 24 ------- 2 1.0 0.0 5 81
h 0.26384 2 21 cbr 1000 ------- 3 2.0 0.1 4 82
h 0.26384 2 21 cbr 24 ------- 3 2.0 0.1 5 83
h 0.26384 3 21 cbr 1000 ------- 1 3.0 0.2 4 84
h 0.26384 3 21 cbr 24 ------- 1 3.0 0.2 5 85
h 0.26384 4 21 cbr 1000 ------- 2 4.0 0.3 4 86
h 0.26384 4 21 cbr 24 ------- 2 4.0 0.3 5 87
h 0.26384 5 21 cbr 1000 ------- 3 5.0 0.4 4 88